 Entering Gaussian System, Link 0=/home/puck/opt/gaussian_09/g09
 Input=dsC7O2H10nsd_3910.com
 Output=dsC7O2H10nsd_3910.log
 Initial command:
 /home/puck/opt/gaussian_09/l1.exe "/scratch/puck/g09_ecf95c78-a24b-43ea-aff8-ecf19154e2da/Gau-60077.inp" -scrdir="/scratch/puck/g09_ecf95c78-a24b-43ea-aff8-ecf19154e2da/"
 Entering Link 1 = /home/puck/opt/gaussian_09/l1.exe PID=     60102.
  
 Copyright (c) 1988,1990,1992,1993,1995,1998,2003,2009,2013,
            Gaussian, Inc.  All Rights Reserved.
  
 This is part of the Gaussian(R) 09 program.  It is based on
 the Gaussian(R) 03 system (copyright 2003, Gaussian, Inc.),
 the Gaussian(R) 98 system (copyright 1998, Gaussian, Inc.),
 the Gaussian(R) 94 system (copyright 1995, Gaussian, Inc.),
 the Gaussian 92(TM) system (copyright 1992, Gaussian, Inc.),
 the Gaussian 90(TM) system (copyright 1990, Gaussian, Inc.),
 the Gaussian 88(TM) system (copyright 1988, Gaussian, Inc.),
 the Gaussian 86(TM) system (copyright 1986, Carnegie Mellon
 University), and the Gaussian 82(TM) system (copyright 1983,
 Carnegie Mellon University). Gaussian is a federally registered
 trademark of Gaussian, Inc.
  
 This software contains proprietary and confidential information,
 including trade secrets, belonging to Gaussian, Inc.
  
 This software is provided under written license and may be
 used, copied, transmitted, or stored only in accord with that
 written license.
  
 The following legend is applicable only to US Government
 contracts under FAR:
  
                    RESTRICTED RIGHTS LEGEND
  
 Use, reproduction and disclosure by the US Government is
 subject to restrictions as set forth in subparagraphs (a)
 and (c) of the Commercial Computer Software - Restricted
 Rights clause in FAR 52.227-19.
  
 Gaussian, Inc.
 340 Quinnipiac St., Bldg. 40, Wallingford CT 06492
  
  
 ---------------------------------------------------------------
 Warning -- This program may not be used in any manner that
 competes with the business of Gaussian, Inc. or will provide
 assistance to any competitor of Gaussian, Inc.  The licensee
 of this program is prohibited from giving any competitor of
 Gaussian, Inc. access to this program.  By using this program,
 the user acknowledges that Gaussian, Inc. is engaged in the
 business of creating and licensing software in the field of
 computational chemistry and represents and warrants to the
 licensee that it is not a competitor of Gaussian, Inc. and that
 it will not use this program in any manner prohibited above.
 ---------------------------------------------------------------
  

 Cite this work as:
 Gaussian 09, Revision D.01,
 M. J. Frisch, G. W. Trucks, H. B. Schlegel, G. E. Scuseria, 
 M. A. Robb, J. R. Cheeseman, G. Scalmani, V. Barone, B. Mennucci, 
 G. A. Petersson, H. Nakatsuji, M. Caricato, X. Li, H. P. Hratchian, 
 A. F. Izmaylov, J. Bloino, G. Zheng, J. L. Sonnenberg, M. Hada, 
 M. Ehara, K. Toyota, R. Fukuda, J. Hasegawa, M. Ishida, T. Nakajima, 
 Y. Honda, O. Kitao, H. Nakai, T. Vreven, J. A. Montgomery, Jr., 
 J. E. Peralta, F. Ogliaro, M. Bearpark, J. J. Heyd, E. Brothers, 
 K. N. Kudin, V. N. Staroverov, T. Keith, R. Kobayashi, J. Normand, 
 K. Raghavachari, A. Rendell, J. C. Burant, S. S. Iyengar, J. Tomasi, 
 M. Cossi, N. Rega, J. M. Millam, M. Klene, J. E. Knox, J. B. Cross, 
 V. Bakken, C. Adamo, J. Jaramillo, R. Gomperts, R. E. Stratmann, 
 O. Yazyev, A. J. Austin, R. Cammi, C. Pomelli, J. W. Ochterski, 
 R. L. Martin, K. Morokuma, V. G. Zakrzewski, G. A. Voth, 
 P. Salvador, J. J. Dannenberg, S. Dapprich, A. D. Daniels, 
 O. Farkas, J. B. Foresman, J. V. Ortiz, J. Cioslowski, 
 and D. J. Fox, Gaussian, Inc., Wallingford CT, 2013.
 
 ******************************************
 Gaussian 09:  ES64L-G09RevD.01 24-Apr-2013
                28-Jan-2020 
 ******************************************
 -----------------------------
 # b3lyp 6-31G(2df,p) opt Freq
 -----------------------------
 1/14=-1,18=20,19=15,26=3,38=1/1,3;
 2/9=110,12=2,17=6,18=5,40=1/2;
 3/5=1,6=6,7=104,11=2,16=1,25=1,30=1,71=1,74=-5/1,2,3;
 4//1;
 5/5=2,38=5/2;
 6/7=2,8=2,9=2,10=2,28=1/1;
 7//1,2,3,16;
 1/14=-1,18=20,19=15,26=3/3(2);
 2/9=110/2;
 99//99;
 2/9=110/2;
 3/5=1,6=6,7=104,11=2,16=1,25=1,30=1,71=1,74=-5/1,2,3;
 4/5=5,16=3,69=1/1;
 5/5=2,38=5/2;
 7//1,2,3,16;
 1/14=-1,18=20,19=15,26=3/3(-5);
 2/9=110/2;
 6/7=2,8=2,9=2,10=2,19=2,28=1/1;
 99/9=1/99;
 -----
 titel
 -----
 Symbolic Z-matrix:
 Charge =  0 Multiplicity = 1
 C                     0.33974  -0.02728  -0.5762 
 C                     0.77155  -0.00797   0.88978 
 O                     2.10957  -0.51402   1.01484 
 C                     2.94576   0.41432   1.67747 
 C                     3.79156  -0.14578   2.85578 
 O                     5.01014   0.33771   2.25838 
 C                     4.33437   0.66125   1.02809 
 C                     2.07105   1.59987   1.94619 
 C                     0.83992   1.36214   1.51041 
 H                     0.41645  -1.04204  -0.97626 
 H                    -0.69948   0.30362  -0.67517 
 H                     0.97612   0.63286  -1.17261 
 H                     0.09791  -0.6645    1.46453 
 H                     3.61847   0.27985   3.85093 
 H                     3.75274  -1.24155   2.90694 
 H                     4.55821   1.67785   0.68462 
 H                     4.54833  -0.05826   0.22718 
 H                     2.4372    2.49442   2.4339 
 H                    -0.01393   2.02531   1.56897 
 

 GradGradGradGradGradGradGradGradGradGradGradGradGradGradGradGradGradGrad
 Berny optimization.
 Initialization pass.
                           ----------------------------
                           !    Initial Parameters    !
                           ! (Angstroms and Degrees)  !
 --------------------------                            --------------------------
 ! Name  Definition              Value          Derivative Info.                !
 --------------------------------------------------------------------------------
 ! R1    R(1,2)                  1.5284         estimate D2E/DX2                !
 ! R2    R(1,10)                 1.0935         estimate D2E/DX2                !
 ! R3    R(1,11)                 1.0951         estimate D2E/DX2                !
 ! R4    R(1,12)                 1.0938         estimate D2E/DX2                !
 ! R5    R(2,3)                  1.436          estimate D2E/DX2                !
 ! R6    R(2,9)                  1.5057         estimate D2E/DX2                !
 ! R7    R(2,13)                 1.1023         estimate D2E/DX2                !
 ! R8    R(3,4)                  1.4142         estimate D2E/DX2                !
 ! R9    R(4,5)                  1.5548         estimate D2E/DX2                !
 ! R10   R(4,7)                  1.5527         estimate D2E/DX2                !
 ! R11   R(4,8)                  1.4976         estimate D2E/DX2                !
 ! R12   R(5,6)                  1.4407         estimate D2E/DX2                !
 ! R13   R(5,14)                 1.0961         estimate D2E/DX2                !
 ! R14   R(5,15)                 1.0976         estimate D2E/DX2                !
 ! R15   R(6,7)                  1.4405         estimate D2E/DX2                !
 ! R16   R(7,16)                 1.0962         estimate D2E/DX2                !
 ! R17   R(7,17)                 1.0977         estimate D2E/DX2                !
 ! R18   R(8,9)                  1.3274         estimate D2E/DX2                !
 ! R19   R(8,18)                 1.0827         estimate D2E/DX2                !
 ! R20   R(9,19)                 1.0827         estimate D2E/DX2                !
 ! A1    A(2,1,10)             110.0494         estimate D2E/DX2                !
 ! A2    A(2,1,11)             110.5479         estimate D2E/DX2                !
 ! A3    A(2,1,12)             110.5479         estimate D2E/DX2                !
 ! A4    A(10,1,11)            108.2956         estimate D2E/DX2                !
 ! A5    A(10,1,12)            108.6487         estimate D2E/DX2                !
 ! A6    A(11,1,12)            108.6905         estimate D2E/DX2                !
 ! A7    A(1,2,3)              110.02           estimate D2E/DX2                !
 ! A8    A(1,2,9)              114.8151         estimate D2E/DX2                !
 ! A9    A(1,2,13)             108.6582         estimate D2E/DX2                !
 ! A10   A(3,2,9)              104.0323         estimate D2E/DX2                !
 ! A11   A(3,2,13)             108.3076         estimate D2E/DX2                !
 ! A12   A(9,2,13)             110.7804         estimate D2E/DX2                !
 ! A13   A(2,3,4)              111.1252         estimate D2E/DX2                !
 ! A14   A(3,4,5)              116.1198         estimate D2E/DX2                !
 ! A15   A(3,4,7)              115.926          estimate D2E/DX2                !
 ! A16   A(3,4,8)              104.9735         estimate D2E/DX2                !
 ! A17   A(5,4,7)               83.5542         estimate D2E/DX2                !
 ! A18   A(5,4,8)              117.8339         estimate D2E/DX2                !
 ! A19   A(7,4,8)              118.1311         estimate D2E/DX2                !
 ! A20   A(4,5,6)               91.4314         estimate D2E/DX2                !
 ! A21   A(4,5,14)             117.5329         estimate D2E/DX2                !
 ! A22   A(4,5,15)             112.0672         estimate D2E/DX2                !
 ! A23   A(6,5,14)             112.3163         estimate D2E/DX2                !
 ! A24   A(6,5,15)             112.5981         estimate D2E/DX2                !
 ! A25   A(14,5,15)            109.8614         estimate D2E/DX2                !
 ! A26   A(5,6,7)               91.8757         estimate D2E/DX2                !
 ! A27   A(4,7,6)               91.5262         estimate D2E/DX2                !
 ! A28   A(4,7,16)             117.4616         estimate D2E/DX2                !
 ! A29   A(4,7,17)             112.0382         estimate D2E/DX2                !
 ! A30   A(6,7,16)             112.342          estimate D2E/DX2                !
 ! A31   A(6,7,17)             112.613          estimate D2E/DX2                !
 ! A32   A(16,7,17)            109.845          estimate D2E/DX2                !
 ! A33   A(4,8,9)              109.9391         estimate D2E/DX2                !
 ! A34   A(4,8,18)             122.5059         estimate D2E/DX2                !
 ! A35   A(9,8,18)             127.5539         estimate D2E/DX2                !
 ! A36   A(2,9,8)              109.9006         estimate D2E/DX2                !
 ! A37   A(2,9,19)             122.9451         estimate D2E/DX2                !
 ! A38   A(8,9,19)             127.154          estimate D2E/DX2                !
 ! D1    D(10,1,2,3)            57.2165         estimate D2E/DX2                !
 ! D2    D(10,1,2,9)           174.1393         estimate D2E/DX2                !
 ! D3    D(10,1,2,13)          -61.2015         estimate D2E/DX2                !
 ! D4    D(11,1,2,3)           176.7988         estimate D2E/DX2                !
 ! D5    D(11,1,2,9)           -66.2784         estimate D2E/DX2                !
 ! D6    D(11,1,2,13)           58.3808         estimate D2E/DX2                !
 ! D7    D(12,1,2,3)           -62.8045         estimate D2E/DX2                !
 ! D8    D(12,1,2,9)            54.1184         estimate D2E/DX2                !
 ! D9    D(12,1,2,13)          178.7776         estimate D2E/DX2                !
 ! D10   D(1,2,3,4)            124.8939         estimate D2E/DX2                !
 ! D11   D(9,2,3,4)              1.4249         estimate D2E/DX2                !
 ! D12   D(13,2,3,4)          -116.4725         estimate D2E/DX2                !
 ! D13   D(1,2,9,8)           -120.7461         estimate D2E/DX2                !
 ! D14   D(1,2,9,19)            59.076          estimate D2E/DX2                !
 ! D15   D(3,2,9,8)             -0.4588         estimate D2E/DX2                !
 ! D16   D(3,2,9,19)           179.3633         estimate D2E/DX2                !
 ! D17   D(13,2,9,8)           115.7184         estimate D2E/DX2                !
 ! D18   D(13,2,9,19)          -64.4595         estimate D2E/DX2                !
 ! D19   D(2,3,4,5)            130.2505         estimate D2E/DX2                !
 ! D20   D(2,3,4,7)           -134.0483         estimate D2E/DX2                !
 ! D21   D(2,3,4,8)             -1.7728         estimate D2E/DX2                !
 ! D22   D(3,4,5,6)            125.0213         estimate D2E/DX2                !
 ! D23   D(3,4,5,14)          -118.787          estimate D2E/DX2                !
 ! D24   D(3,4,5,15)             9.8771         estimate D2E/DX2                !
 ! D25   D(7,4,5,6)              9.2589         estimate D2E/DX2                !
 ! D26   D(7,4,5,14)           125.4506         estimate D2E/DX2                !
 ! D27   D(7,4,5,15)          -105.8854         estimate D2E/DX2                !
 ! D28   D(8,4,5,6)           -109.2254         estimate D2E/DX2                !
 ! D29   D(8,4,5,14)             6.9663         estimate D2E/DX2                !
 ! D30   D(8,4,5,15)           135.6304         estimate D2E/DX2                !
 ! D31   D(3,4,7,6)           -125.2183         estimate D2E/DX2                !
 ! D32   D(3,4,7,16)           118.5242         estimate D2E/DX2                !
 ! D33   D(3,4,7,17)           -10.0205         estimate D2E/DX2                !
 ! D34   D(5,4,7,6)             -9.2607         estimate D2E/DX2                !
 ! D35   D(5,4,7,16)          -125.5182         estimate D2E/DX2                !
 ! D36   D(5,4,7,17)           105.9372         estimate D2E/DX2                !
 ! D37   D(8,4,7,6)            108.9308         estimate D2E/DX2                !
 ! D38   D(8,4,7,16)            -7.3267         estimate D2E/DX2                !
 ! D39   D(8,4,7,17)          -135.8714         estimate D2E/DX2                !
 ! D40   D(3,4,8,9)              1.4671         estimate D2E/DX2                !
 ! D41   D(3,4,8,18)          -178.8875         estimate D2E/DX2                !
 ! D42   D(5,4,8,9)           -129.571          estimate D2E/DX2                !
 ! D43   D(5,4,8,18)            50.0744         estimate D2E/DX2                !
 ! D44   D(7,4,8,9)            132.4774         estimate D2E/DX2                !
 ! D45   D(7,4,8,18)           -47.8773         estimate D2E/DX2                !
 ! D46   D(4,5,6,7)             -9.9291         estimate D2E/DX2                !
 ! D47   D(14,5,6,7)          -130.5992         estimate D2E/DX2                !
 ! D48   D(15,5,6,7)           104.7456         estimate D2E/DX2                !
 ! D49   D(5,6,7,4)              9.9432         estimate D2E/DX2                !
 ! D50   D(5,6,7,16)           130.5876         estimate D2E/DX2                !
 ! D51   D(5,6,7,17)          -104.7471         estimate D2E/DX2                !
 ! D52   D(4,8,9,2)             -0.6156         estimate D2E/DX2                !
 ! D53   D(4,8,9,19)           179.5717         estimate D2E/DX2                !
 ! D54   D(18,8,9,2)           179.7616         estimate D2E/DX2                !
 ! D55   D(18,8,9,19)           -0.0511         estimate D2E/DX2                !
 --------------------------------------------------------------------------------
 Trust Radius=3.00D-01 FncErr=1.00D-07 GrdErr=1.00D-06
 Number of steps in this run=    114 maximum allowed number of steps=    114.
 GradGradGradGradGradGradGradGradGradGradGradGradGradGradGradGradGradGrad

                          Input orientation:                          
 ---------------------------------------------------------------------
 Center     Atomic      Atomic             Coordinates (Angstroms)
 Number     Number       Type             X           Y           Z
 ---------------------------------------------------------------------
      1          6           0        0.339738   -0.027281   -0.576195
      2          6           0        0.771555   -0.007973    0.889777
      3          8           0        2.109571   -0.514018    1.014841
      4          6           0        2.945756    0.414319    1.677470
      5          6           0        3.791559   -0.145778    2.855782
      6          8           0        5.010138    0.337710    2.258384
      7          6           0        4.334373    0.661247    1.028094
      8          6           0        2.071048    1.599867    1.946186
      9          6           0        0.839923    1.362145    1.510411
     10          1           0        0.416454   -1.042038   -0.976257
     11          1           0       -0.699480    0.303616   -0.675173
     12          1           0        0.976120    0.632865   -1.172612
     13          1           0        0.097915   -0.664503    1.464526
     14          1           0        3.618475    0.279855    3.850933
     15          1           0        3.752736   -1.241547    2.906944
     16          1           0        4.558208    1.677855    0.684617
     17          1           0        4.548334   -0.058264    0.227184
     18          1           0        2.437196    2.494423    2.433899
     19          1           0       -0.013928    2.025306    1.568968
 ---------------------------------------------------------------------
                    Distance matrix (angstroms):
                    1          2          3          4          5
     1  C    0.000000
     2  C    1.528369   0.000000
     3  O    2.429119   1.435970   0.000000
     4  C    3.473520   2.350732   1.414246   0.000000
     5  C    4.869043   3.606188   2.520665   1.554835   0.000000
     6  O    5.475463   4.467457   3.268811   2.145927   1.440687
     7  C    4.359464   3.627762   2.516181   1.552714   2.070358
     8  C    3.465177   2.321601   2.310281   1.497614   2.614345
     9  C    2.556289   1.505684   2.318962   2.315343   3.577151
    10  H    1.093465   2.162746   2.666444   3.944693   5.184510
    11  H    1.095109   2.170277   3.378675   4.339923   5.730536
    12  H    1.093842   2.169324   2.717536   3.471339   4.976037
    13  H    2.151528   1.102343   2.066791   3.052769   3.980914
    14  H    5.517600   4.117796   3.309145   2.279161   1.096105
    15  H    5.025460   3.805011   2.609471   2.214659   1.097649
    16  H    4.721507   4.150042   3.302904   2.276462   2.937234
    17  H    4.284700   3.834790   2.603013   2.212446   2.736768
    18  H    4.451852   3.379446   3.342421   2.271046   2.997156
    19  H    2.989970   2.283092   3.356259   3.371466   4.566315
                    6          7          8          9         10
     6  O    0.000000
     7  C    1.440468   0.000000
     8  C    3.213839   2.616589   0.000000
     9  C    4.358856   3.596536   1.327434   0.000000
    10  H    5.785200   4.718971   4.272940   3.484672   0.000000
    11  H    6.419242   5.326228   4.028352   2.875243   1.773907
    12  H    5.303975   4.015193   3.443960   2.783705   1.776818
    13  H    5.075882   4.460455   3.041812   2.158699   2.490266
    14  H    2.115724   2.937071   2.786579   3.790745   5.941557
    15  H    2.120316   2.736604   3.438715   4.148975   5.123458
    16  H    2.115885   1.096162   2.789911   3.821944   5.225940
    17  H    2.120338   1.097694   3.441121   4.173313   4.414579
    18  H    3.361882   2.989332   1.082662   2.164755   5.312167
    19  H    5.344578   4.589218   2.161115   1.082716   4.008990
                   11         12         13         14         15
    11  H    0.000000
    12  H    1.778620   0.000000
    13  H    2.480203   3.067394   0.000000
    14  H    6.255473   5.687060   4.356729   0.000000
    15  H    5.919571   5.278805   3.971305   1.795495   0.000000
    16  H    5.601862   4.168052   5.097952   3.586510   3.756385
    17  H    5.337111   3.898435   4.658838   3.756397   3.035498
    18  H    4.929980   4.313590   4.048546   2.882311   3.988971
    19  H    2.910390   3.230379   2.694159   4.631232   5.162389
                   16         17         18         19
    16  H    0.000000
    17  H    1.795398   0.000000
    18  H    2.868007   3.980290   0.000000
    19  H    4.669821   5.191905   2.641246   0.000000
 Stoichiometry    C7H10O2
 Framework group  C1[X(C7H10O2)]
 Deg. of freedom    51
 Full point group                 C1      NOp   1
 Largest Abelian subgroup         C1      NOp   1
 Largest concise Abelian subgroup C1      NOp   1
                         Standard orientation:                         
 ---------------------------------------------------------------------
 Center     Atomic      Atomic             Coordinates (Angstroms)
 Number     Number       Type             X           Y           Z
 ---------------------------------------------------------------------
      1          6           0       -2.758104   -0.850775   -0.281350
      2          6           0       -1.729242   -0.017118    0.481782
      3          8           0       -0.478834   -0.720008    0.548377
      4          6           0        0.576851    0.067957    0.033856
      5          6           0        1.843618    0.183231    0.928018
      6          8           0        2.686241   -0.284539   -0.142850
      7          6           0        1.546108   -0.650430   -0.943580
      8          6           0       -0.074474    1.336815   -0.422896
      9          6           0       -1.375785    1.296324   -0.163991
     10          1           0       -2.879308   -1.826484    0.197156
     11          1           0       -3.731033   -0.348160   -0.288509
     12          1           0       -2.436031   -1.005792   -1.315144
     13          1           0       -2.094234    0.138425    1.510250
     14          1           0        2.128993    1.182713    1.275929
     15          1           0        1.814285   -0.512671    1.776366
     16          1           0        1.613000   -0.261390   -1.966196
     17          1           0        1.377827   -1.734880   -0.967710
     18          1           0        0.481519    2.142311   -0.885718
     19          1           0       -2.108106    2.066289   -0.371674
 ---------------------------------------------------------------------
 Rotational constants (GHZ):      3.8667569      1.1504854      1.0620003
 Standard basis: 6-31G(2df,p) (6D, 7F)
 There are   329 symmetry adapted cartesian basis functions of A   symmetry.
 There are   302 symmetry adapted basis functions of A   symmetry.
   302 basis functions,   466 primitive gaussians,   329 cartesian basis functions
    34 alpha electrons       34 beta electrons
       nuclear repulsion energy       465.3357122896 Hartrees.
 NAtoms=   19 NActive=   19 NUniq=   19 SFac= 1.00D+00 NAtFMM=   60 NAOKFM=F Big=F
 Integral buffers will be    131072 words long.
 Raffenetti 2 integral format.
 Two-electron integral symmetry is turned on.
 One-electron integrals computed using PRISM.
 NBasis=   302 RedAO= T EigKep=  3.35D-04  NBF=   302
 NBsUse=   302 1.00D-06 EigRej= -1.00D+00 NBFU=   302
 ExpMin= 1.61D-01 ExpMax= 5.48D+03 ExpMxC= 8.25D+02 IAcc=1 IRadAn=         1 AccDes= 0.00D+00
 Harris functional with IExCor=  402 and IRadAn=       1 diagonalized for initial guess.
 HarFok:  IExCor=  402 AccDes= 0.00D+00 IRadAn=         1 IDoV= 1 UseB2=F ITyADJ=14
 ICtDFT=  3500011 ScaDFX=  1.000000  1.000000  1.000000  1.000000
 FoFCou: FMM=F IPFlag=           0 FMFlag=      100000 FMFlg1=           0
         NFxFlg=           0 DoJE=T BraDBF=F KetDBF=T FulRan=T
         wScrn=  0.000000 ICntrl=     500 IOpCl=  0 I1Cent=   200000004 NGrid=           0
         NMat0=    1 NMatS0=      1 NMatT0=    0 NMatD0=    1 NMtDS0=    0 NMtDT0=    0
 Petite list used in FoFCou.
 Requested convergence on RMS density matrix=1.00D-08 within 128 cycles.
 Requested convergence on MAX density matrix=1.00D-06.
 Requested convergence on             energy=1.00D-06.
 No special actions if energy rises.
 Integral accuracy reduced to 1.0D-05 until final iterations.
 Initial convergence to 1.0D-05 achieved.  Increase integral accuracy.
 SCF Done:  E(RB3LYP) =  -423.170767107     A.U. after   14 cycles
            NFock= 14  Conv=0.31D-08     -V/T= 2.0074

 **********************************************************************

            Population analysis using the SCF density.

 **********************************************************************

 Orbital symmetries:
       Occupied  (A) (A) (A) (A) (A) (A) (A) (A) (A) (A) (A) (A)
                 (A) (A) (A) (A) (A) (A) (A) (A) (A) (A) (A) (A)
                 (A) (A) (A) (A) (A) (A) (A) (A) (A) (A)
       Virtual   (A) (A) (A) (A) (A) (A) (A) (A) (A) (A) (A) (A)
                 (A) (A) (A) (A) (A) (A) (A) (A) (A) (A) (A) (A)
                 (A) (A) (A) (A) (A) (A) (A) (A) (A) (A) (A) (A)
                 (A) (A) (A) (A) (A) (A) (A) (A) (A) (A) (A) (A)
                 (A) (A) (A) (A) (A) (A) (A) (A) (A) (A) (A) (A)
                 (A) (A) (A) (A) (A) (A) (A) (A) (A) (A) (A) (A)
                 (A) (A) (A) (A) (A) (A) (A) (A) (A) (A) (A) (A)
                 (A) (A) (A) (A) (A) (A) (A) (A) (A) (A) (A) (A)
                 (A) (A) (A) (A) (A) (A) (A) (A) (A) (A) (A) (A)
                 (A) (A) (A) (A) (A) (A) (A) (A) (A) (A) (A) (A)
                 (A) (A) (A) (A) (A) (A) (A) (A) (A) (A) (A) (A)
                 (A) (A) (A) (A) (A) (A) (A) (A) (A) (A) (A) (A)
                 (A) (A) (A) (A) (A) (A) (A) (A) (A) (A) (A) (A)
                 (A) (A) (A) (A) (A) (A) (A) (A) (A) (A) (A) (A)
                 (A) (A) (A) (A) (A) (A) (A) (A) (A) (A) (A) (A)
                 (A) (A) (A) (A) (A) (A) (A) (A) (A) (A) (A) (A)
                 (A) (A) (A) (A) (A) (A) (A) (A) (A) (A) (A) (A)
                 (A) (A) (A) (A) (A) (A) (A) (A) (A) (A) (A) (A)
                 (A) (A) (A) (A) (A) (A) (A) (A) (A) (A) (A) (A)
                 (A) (A) (A) (A) (A) (A) (A) (A) (A) (A) (A) (A)
                 (A) (A) (A) (A) (A) (A) (A) (A) (A) (A) (A) (A)
                 (A) (A) (A) (A) (A) (A) (A) (A) (A) (A) (A) (A)
                 (A) (A) (A) (A)
 The electronic state is 1-A.
 Alpha  occ. eigenvalues --  -19.14200 -19.12984 -10.24378 -10.24122 -10.22372
 Alpha  occ. eigenvalues --  -10.22341 -10.19299 -10.19177 -10.17991  -1.05082
 Alpha  occ. eigenvalues --   -1.02570  -0.79679  -0.77626  -0.70244  -0.68901
 Alpha  occ. eigenvalues --   -0.61816  -0.57829  -0.54852  -0.51386  -0.48364
 Alpha  occ. eigenvalues --   -0.47146  -0.45970  -0.43525  -0.40689  -0.40216
 Alpha  occ. eigenvalues --   -0.39925  -0.38251  -0.36072  -0.35198  -0.32913
 Alpha  occ. eigenvalues --   -0.30649  -0.27994  -0.24604  -0.23787
 Alpha virt. eigenvalues --    0.00596   0.07902   0.09561   0.11908   0.12165
 Alpha virt. eigenvalues --    0.13722   0.14583   0.15715   0.16224   0.16352
 Alpha virt. eigenvalues --    0.17630   0.18357   0.18823   0.19387   0.21992
 Alpha virt. eigenvalues --    0.22397   0.23158   0.24348   0.28455   0.36243
 Alpha virt. eigenvalues --    0.39312   0.41177   0.42896   0.44225   0.45861
 Alpha virt. eigenvalues --    0.46484   0.48592   0.49505   0.51396   0.53506
 Alpha virt. eigenvalues --    0.53741   0.54664   0.55395   0.57491   0.60043
 Alpha virt. eigenvalues --    0.61973   0.65188   0.66697   0.68182   0.68906
 Alpha virt. eigenvalues --    0.69969   0.71130   0.72596   0.72792   0.73157
 Alpha virt. eigenvalues --    0.75220   0.76778   0.77126   0.79206   0.80023
 Alpha virt. eigenvalues --    0.80612   0.81097   0.81747   0.84390   0.85279
 Alpha virt. eigenvalues --    0.87473   0.90162   0.91920   0.94916   0.97573
 Alpha virt. eigenvalues --    1.00363   1.01053   1.04899   1.07941   1.09459
 Alpha virt. eigenvalues --    1.11735   1.12994   1.18429   1.18734   1.20085
 Alpha virt. eigenvalues --    1.24196   1.27947   1.28407   1.29520   1.32486
 Alpha virt. eigenvalues --    1.34079   1.36850   1.37863   1.39614   1.42513
 Alpha virt. eigenvalues --    1.44642   1.45383   1.46218   1.48316   1.49203
 Alpha virt. eigenvalues --    1.51002   1.52374   1.55065   1.56804   1.57769
 Alpha virt. eigenvalues --    1.58879   1.63078   1.64565   1.66437   1.68253
 Alpha virt. eigenvalues --    1.73447   1.75795   1.76838   1.78031   1.81962
 Alpha virt. eigenvalues --    1.83732   1.84902   1.87173   1.90898   1.91634
 Alpha virt. eigenvalues --    1.92323   1.95560   1.97266   2.01604   2.08916
 Alpha virt. eigenvalues --    2.12845   2.15486   2.18450   2.21123   2.26580
 Alpha virt. eigenvalues --    2.30808   2.32068   2.33689   2.35740   2.38209
 Alpha virt. eigenvalues --    2.44474   2.48188   2.50885   2.55320   2.58032
 Alpha virt. eigenvalues --    2.59977   2.66924   2.67625   2.69560   2.72867
 Alpha virt. eigenvalues --    2.75371   2.76258   2.78174   2.81248   2.83420
 Alpha virt. eigenvalues --    2.83827   2.85583   2.88964   2.89998   2.90589
 Alpha virt. eigenvalues --    2.93017   2.95435   2.96531   2.96656   3.01148
 Alpha virt. eigenvalues --    3.06074   3.07222   3.09135   3.10112   3.14197
 Alpha virt. eigenvalues --    3.16882   3.17289   3.18758   3.22663   3.25810
 Alpha virt. eigenvalues --    3.27706   3.28117   3.30638   3.33724   3.33985
 Alpha virt. eigenvalues --    3.36293   3.37917   3.38561   3.41427   3.43115
 Alpha virt. eigenvalues --    3.43542   3.45370   3.47858   3.51945   3.54356
 Alpha virt. eigenvalues --    3.57561   3.60481   3.63165   3.65556   3.69063
 Alpha virt. eigenvalues --    3.71151   3.78596   3.84238   3.85178   3.87649
 Alpha virt. eigenvalues --    3.91083   3.93533   3.99002   4.02282   4.06227
 Alpha virt. eigenvalues --    4.10525   4.13830   4.17486   4.24649   4.28764
 Alpha virt. eigenvalues --    4.32333   4.32609   4.34381   4.38553   4.40386
 Alpha virt. eigenvalues --    4.41959   4.42944   4.43402   4.44871   4.47583
 Alpha virt. eigenvalues --    4.48502   4.49169   4.52079   4.53540   4.54416
 Alpha virt. eigenvalues --    4.55365   4.58824   4.59336   4.61740   4.64923
 Alpha virt. eigenvalues --    4.68530   4.69607   4.71051   4.72275   4.73498
 Alpha virt. eigenvalues --    4.76355   4.77205   4.79086   4.80482   4.83417
 Alpha virt. eigenvalues --    4.85384   4.88199   4.88907   4.89952   4.92642
 Alpha virt. eigenvalues --    4.92900   4.94660   4.95596   5.02700   5.05055
 Alpha virt. eigenvalues --    5.11086   5.21974   5.26494   5.30041   5.33801
 Alpha virt. eigenvalues --    5.37645   5.43381   5.43941   5.46513   5.50092
 Alpha virt. eigenvalues --    5.51496   5.53926   5.57787   5.67983   5.69919
 Alpha virt. eigenvalues --    5.80648   5.82668   5.85528   5.92867   5.93061
 Alpha virt. eigenvalues --    5.98214   6.01687   6.13676   6.21929   6.24165
 Alpha virt. eigenvalues --    6.32477   6.56396   7.04119   7.28721  10.40873
 Alpha virt. eigenvalues --   11.13596  11.39149  11.68784  11.85647  12.15375
 Alpha virt. eigenvalues --   12.71224  13.36180  13.73785
          Condensed to atoms (all electrons):
               1          2          3          4          5          6
     1  C    5.046178   0.374446  -0.032024   0.005530  -0.000312   0.000002
     2  C    0.374446   4.707993   0.362549  -0.133168   0.000695  -0.000177
     3  O   -0.032024   0.362549   7.779698   0.374796  -0.034558   0.002468
     4  C    0.005530  -0.133168   0.374796   4.534440   0.365646  -0.074232
     5  C   -0.000312   0.000695  -0.034558   0.365646   5.060746   0.347107
     6  O    0.000002  -0.000177   0.002468  -0.074232   0.347107   7.743947
     7  C    0.000332   0.008753  -0.029839   0.362989  -0.256896   0.344810
     8  C   -0.006854  -0.005061  -0.042344   0.302230  -0.039760   0.010706
     9  C   -0.019407   0.352448  -0.051253   0.003560  -0.000636   0.000128
    10  H    0.369881  -0.017110  -0.000848  -0.000237   0.000004   0.000000
    11  H    0.353758  -0.018268   0.002697  -0.000187   0.000007   0.000000
    12  H    0.364030  -0.021529   0.000741   0.000888   0.000037   0.000001
    13  H   -0.068636   0.358649  -0.026438   0.006457   0.000943   0.000004
    14  H    0.000006   0.000104   0.002468  -0.010900   0.340733  -0.025617
    15  H    0.000015   0.000038  -0.000767  -0.006770   0.320911  -0.025536
    16  H   -0.000028  -0.000164   0.002254  -0.011740   0.013582  -0.025543
    17  H   -0.000026  -0.000564  -0.000776  -0.006267   0.004956  -0.025330
    18  H   -0.000165   0.006870   0.002807  -0.038414   0.000288   0.000276
    19  H    0.001928  -0.043237   0.002583   0.004037  -0.000094   0.000002
               7          8          9         10         11         12
     1  C    0.000332  -0.006854  -0.019407   0.369881   0.353758   0.364030
     2  C    0.008753  -0.005061   0.352448  -0.017110  -0.018268  -0.021529
     3  O   -0.029839  -0.042344  -0.051253  -0.000848   0.002697   0.000741
     4  C    0.362989   0.302230   0.003560  -0.000237  -0.000187   0.000888
     5  C   -0.256896  -0.039760  -0.000636   0.000004   0.000007   0.000037
     6  O    0.344810   0.010706   0.000128   0.000000   0.000000   0.000001
     7  C    5.050979  -0.036018  -0.003642  -0.000036  -0.000012  -0.000194
     8  C   -0.036018   4.948925   0.684130   0.000313   0.000362   0.002055
     9  C   -0.003642   0.684130   4.871746   0.003347  -0.001234  -0.004323
    10  H   -0.000036   0.000313   0.003347   0.578108  -0.029820  -0.029708
    11  H   -0.000012   0.000362  -0.001234  -0.029820   0.603831  -0.027529
    12  H   -0.000194   0.002055  -0.004323  -0.029708  -0.027529   0.588318
    13  H   -0.000487  -0.003728  -0.041402  -0.002735   0.002191   0.006423
    14  H    0.013539  -0.009352   0.000351   0.000000   0.000000   0.000000
    15  H    0.004591   0.006933   0.000104   0.000001   0.000000  -0.000001
    16  H    0.342130  -0.009536   0.000597   0.000001   0.000000   0.000044
    17  H    0.319880   0.006816   0.000178   0.000032   0.000003   0.000088
    18  H    0.000515   0.361854  -0.040112   0.000005  -0.000002  -0.000036
    19  H   -0.000148  -0.024584   0.356223  -0.000151   0.000711   0.000127
              13         14         15         16         17         18
     1  C   -0.068636   0.000006   0.000015  -0.000028  -0.000026  -0.000165
     2  C    0.358649   0.000104   0.000038  -0.000164  -0.000564   0.006870
     3  O   -0.026438   0.002468  -0.000767   0.002254  -0.000776   0.002807
     4  C    0.006457  -0.010900  -0.006770  -0.011740  -0.006267  -0.038414
     5  C    0.000943   0.340733   0.320911   0.013582   0.004956   0.000288
     6  O    0.000004  -0.025617  -0.025536  -0.025543  -0.025330   0.000276
     7  C   -0.000487   0.013539   0.004591   0.342130   0.319880   0.000515
     8  C   -0.003728  -0.009352   0.006933  -0.009536   0.006816   0.361854
     9  C   -0.041402   0.000351   0.000104   0.000597   0.000178  -0.040112
    10  H   -0.002735   0.000000   0.000001   0.000001   0.000032   0.000005
    11  H    0.002191   0.000000   0.000000   0.000000   0.000003  -0.000002
    12  H    0.006423   0.000000  -0.000001   0.000044   0.000088  -0.000036
    13  H    0.680670  -0.000054  -0.000145   0.000009   0.000022  -0.000228
    14  H   -0.000054   0.645004  -0.055941  -0.000076  -0.001090   0.000662
    15  H   -0.000145  -0.055941   0.647632  -0.001082   0.003616  -0.000025
    16  H    0.000009  -0.000076  -0.001082   0.644703  -0.055924   0.000643
    17  H    0.000022  -0.001090   0.003616  -0.055924   0.648188  -0.000028
    18  H   -0.000228   0.000662  -0.000025   0.000643  -0.000028   0.590426
    19  H    0.001791  -0.000025   0.000004  -0.000018   0.000005  -0.002743
              19
     1  C    0.001928
     2  C   -0.043237
     3  O    0.002583
     4  C    0.004037
     5  C   -0.000094
     6  O    0.000002
     7  C   -0.000148
     8  C   -0.024584
     9  C    0.356223
    10  H   -0.000151
    11  H    0.000711
    12  H    0.000127
    13  H    0.001791
    14  H   -0.000025
    15  H    0.000004
    16  H   -0.000018
    17  H    0.000005
    18  H   -0.002743
    19  H    0.593348
 Mulliken charges:
               1
     1  C   -0.388651
     2  C    0.066733
     3  O   -0.314215
     4  C    0.321341
     5  C   -0.123397
     6  O   -0.273015
     7  C   -0.121246
     8  C   -0.147088
     9  C   -0.110805
    10  H    0.128954
    11  H    0.113492
    12  H    0.120569
    13  H    0.086694
    14  H    0.100190
    15  H    0.106422
    16  H    0.100148
    17  H    0.106222
    18  H    0.117407
    19  H    0.110243
 Sum of Mulliken charges =   0.00000
 Mulliken charges with hydrogens summed into heavy atoms:
               1
     1  C   -0.025635
     2  C    0.153427
     3  O   -0.314215
     4  C    0.321341
     5  C    0.083215
     6  O   -0.273015
     7  C    0.085124
     8  C   -0.029681
     9  C   -0.000562
 Electronic spatial extent (au):  <R**2>=           1199.3512
 Charge=              0.0000 electrons
 Dipole moment (field-independent basis, Debye):
    X=             -2.2692    Y=              1.3414    Z=             -0.2831  Tot=              2.6513
 Quadrupole moment (field-independent basis, Debye-Ang):
   XX=            -56.8000   YY=            -51.9348   ZZ=            -51.8118
   XY=              0.2440   XZ=              0.3027   YZ=              0.3736
 Traceless Quadrupole moment (field-independent basis, Debye-Ang):
   XX=             -3.2845   YY=              1.5808   ZZ=              1.7037
   XY=              0.2440   XZ=              0.3027   YZ=              0.3736
 Octapole moment (field-independent basis, Debye-Ang**2):
  XXX=            -28.8760  YYY=             -1.3891  ZZZ=              1.9172  XYY=              3.0014
  XXY=              4.3144  XXZ=              5.5631  XZZ=              6.9793  YZZ=             -2.0319
  YYZ=             -2.3815  XYZ=              0.9805
 Hexadecapole moment (field-independent basis, Debye-Ang**3):
 XXXX=          -1147.8796 YYYY=           -279.9707 ZZZZ=           -191.9605 XXXY=              1.6998
 XXXZ=              3.1920 YYYX=             -2.9790 YYYZ=             -7.3973 ZZZX=             -6.1123
 ZZZY=             -0.8459 XXYY=           -217.5188 XXZZ=           -204.4511 YYZZ=            -80.9655
 XXYZ=             -1.4067 YYXZ=             -1.2227 ZZXY=              0.0836
 N-N= 4.653357122896D+02 E-N=-1.917542252332D+03  KE= 4.200516289578D+02
 Calling FoFJK, ICntrl=      2127 FMM=F ISym2X=0 I1Cent= 0 IOpClX= 0 NMat=1 NMatS=1 NMatT=0.
 ***** Axes restored to original set *****
 -------------------------------------------------------------------
 Center     Atomic                   Forces (Hartrees/Bohr)
 Number     Number              X              Y              Z
 -------------------------------------------------------------------
      1        6          -0.000019154    0.000009327    0.000012332
      2        6           0.000039653   -0.000031202   -0.000002439
      3        8          -0.000021324    0.000017355    0.000011062
      4        6          -0.000040074   -0.000003718   -0.000004611
      5        6           0.000011616    0.000000103    0.000020513
      6        8          -0.000003765   -0.000008228    0.000002233
      7        6           0.000020630    0.000011792   -0.000025112
      8        6           0.000017279   -0.000005241   -0.000006565
      9        6          -0.000016714    0.000019208    0.000001989
     10        1          -0.000003918    0.000002559   -0.000007318
     11        1           0.000001578    0.000005543   -0.000000624
     12        1           0.000004999    0.000000693   -0.000000269
     13        1          -0.000001170    0.000002622    0.000003242
     14        1           0.000006746   -0.000002285   -0.000002989
     15        1          -0.000004610   -0.000003327   -0.000011236
     16        1           0.000002384   -0.000005567    0.000005091
     17        1          -0.000007151   -0.000008938    0.000004799
     18        1           0.000006340   -0.000002794   -0.000000801
     19        1           0.000006655    0.000002099    0.000000702
 -------------------------------------------------------------------
 Cartesian Forces:  Max     0.000040074 RMS     0.000012720

 GradGradGradGradGradGradGradGradGradGradGradGradGradGradGradGradGradGrad
 Berny optimization.
 FormGI is forming the generalized inverse of G from B-inverse, IUseBI=4.
 Internal  Forces:  Max     0.000029351 RMS     0.000005301
 Search for a local minimum.
 Step number   1 out of a maximum of  114
 All quantities printed in internal units (Hartrees-Bohrs-Radians)
 Mixed Optimization -- En-DIIS/RFO-DIIS
 Second derivative matrix not updated -- first step.
 ITU=  0
     Eigenvalues ---    0.00391   0.00502   0.01042   0.01293   0.01592
     Eigenvalues ---    0.01972   0.02774   0.04066   0.04754   0.05015
     Eigenvalues ---    0.05275   0.05501   0.05618   0.05687   0.05721
     Eigenvalues ---    0.07124   0.07945   0.08448   0.09973   0.10029
     Eigenvalues ---    0.10517   0.10569   0.11634   0.15837   0.15999
     Eigenvalues ---    0.16000   0.16000   0.16000   0.16000   0.20182
     Eigenvalues ---    0.21300   0.26144   0.26377   0.28900   0.29575
     Eigenvalues ---    0.32018   0.33424   0.33938   0.33943   0.34110
     Eigenvalues ---    0.34117   0.34229   0.34372   0.34415   0.35668
     Eigenvalues ---    0.35675   0.36777   0.37013   0.38543   0.41428
     Eigenvalues ---    0.57613
 RFO step:  Lambda=-1.99618960D-08 EMin= 3.90679812D-03
 Linear search not attempted -- first point.
 Iteration  1 RMS(Cart)=  0.00010958 RMS(Int)=  0.00000001
 Iteration  2 RMS(Cart)=  0.00000001 RMS(Int)=  0.00000000
 Variable       Old X    -DE/DX   Delta X   Delta X   Delta X     New X
                                 (Linear)    (Quad)   (Total)
    R1        2.88820   0.00000   0.00000   0.00001   0.00001   2.88821
    R2        2.06635   0.00000   0.00000   0.00001   0.00001   2.06636
    R3        2.06946   0.00000   0.00000  -0.00001  -0.00001   2.06945
    R4        2.06706   0.00000   0.00000   0.00001   0.00001   2.06707
    R5        2.71359  -0.00003   0.00000  -0.00007  -0.00007   2.71352
    R6        2.84533   0.00001   0.00000   0.00005   0.00005   2.84538
    R7        2.08313   0.00000   0.00000   0.00000   0.00000   2.08313
    R8        2.67254  -0.00001   0.00000  -0.00003  -0.00003   2.67251
    R9        2.93821   0.00001   0.00000   0.00005   0.00005   2.93826
   R10        2.93420   0.00002   0.00000   0.00006   0.00006   2.93427
   R11        2.83008  -0.00001   0.00000  -0.00004  -0.00004   2.83004
   R12        2.72250   0.00000   0.00000  -0.00001  -0.00001   2.72249
   R13        2.07134   0.00000   0.00000  -0.00001  -0.00001   2.07133
   R14        2.07426   0.00000   0.00000   0.00000   0.00000   2.07426
   R15        2.72209   0.00000   0.00000   0.00001   0.00001   2.72210
   R16        2.07145   0.00000   0.00000  -0.00001  -0.00001   2.07144
   R17        2.07434   0.00000   0.00000  -0.00001  -0.00001   2.07433
   R18        2.50849   0.00001   0.00000   0.00001   0.00001   2.50850
   R19        2.04594   0.00000   0.00000   0.00000   0.00000   2.04593
   R20        2.04604   0.00000   0.00000  -0.00001  -0.00001   2.04602
    A1        1.92072   0.00001   0.00000   0.00007   0.00007   1.92080
    A2        1.92942   0.00000   0.00000   0.00004   0.00004   1.92946
    A3        1.92942  -0.00001   0.00000  -0.00006  -0.00006   1.92937
    A4        1.89012   0.00000   0.00000   0.00000   0.00000   1.89012
    A5        1.89628   0.00000   0.00000  -0.00005  -0.00005   1.89622
    A6        1.89701   0.00000   0.00000   0.00000   0.00000   1.89701
    A7        1.92021   0.00001   0.00000   0.00005   0.00005   1.92026
    A8        2.00390  -0.00001   0.00000  -0.00009  -0.00009   2.00381
    A9        1.89644   0.00000   0.00000   0.00003   0.00003   1.89648
   A10        1.81571   0.00000   0.00000   0.00000   0.00000   1.81571
   A11        1.89032   0.00000   0.00000   0.00001   0.00001   1.89033
   A12        1.93348   0.00000   0.00000   0.00000   0.00000   1.93348
   A13        1.93950   0.00001   0.00000   0.00001   0.00001   1.93951
   A14        2.02667   0.00000   0.00000  -0.00002  -0.00002   2.02665
   A15        2.02329   0.00000   0.00000  -0.00001  -0.00001   2.02328
   A16        1.83213   0.00000   0.00000   0.00001   0.00001   1.83215
   A17        1.45830   0.00000   0.00000  -0.00001  -0.00001   1.45829
   A18        2.05659   0.00000   0.00000   0.00004   0.00004   2.05663
   A19        2.06178   0.00000   0.00000  -0.00002  -0.00002   2.06176
   A20        1.59578   0.00000   0.00000   0.00001   0.00001   1.59579
   A21        2.05134   0.00000   0.00000   0.00006   0.00006   2.05140
   A22        1.95594  -0.00001   0.00000  -0.00010  -0.00010   1.95584
   A23        1.96029   0.00000   0.00000  -0.00001  -0.00001   1.96028
   A24        1.96521   0.00000   0.00000  -0.00002  -0.00002   1.96519
   A25        1.91744   0.00000   0.00000   0.00005   0.00005   1.91749
   A26        1.60353   0.00001   0.00000   0.00003   0.00003   1.60356
   A27        1.59743   0.00000   0.00000  -0.00001  -0.00001   1.59743
   A28        2.05009   0.00000   0.00000   0.00002   0.00002   2.05012
   A29        1.95543  -0.00001   0.00000  -0.00006  -0.00006   1.95537
   A30        1.96074   0.00000   0.00000  -0.00002  -0.00002   1.96071
   A31        1.96547   0.00000   0.00000  -0.00002  -0.00002   1.96545
   A32        1.91716   0.00001   0.00000   0.00007   0.00007   1.91722
   A33        1.91880   0.00000   0.00000   0.00000   0.00000   1.91880
   A34        2.13813   0.00000   0.00000  -0.00002  -0.00002   2.13812
   A35        2.22624   0.00000   0.00000   0.00002   0.00002   2.22626
   A36        1.91813  -0.00001   0.00000  -0.00003  -0.00003   1.91810
   A37        2.14580   0.00001   0.00000   0.00002   0.00002   2.14581
   A38        2.21926   0.00000   0.00000   0.00001   0.00001   2.21927
    D1        0.99862   0.00000   0.00000   0.00023   0.00023   0.99885
    D2        3.03930   0.00000   0.00000   0.00021   0.00021   3.03951
    D3       -1.06817   0.00000   0.00000   0.00017   0.00017  -1.06800
    D4        3.08572   0.00000   0.00000   0.00030   0.00030   3.08602
    D5       -1.15678   0.00000   0.00000   0.00028   0.00028  -1.15649
    D6        1.01894   0.00000   0.00000   0.00025   0.00025   1.01918
    D7       -1.09614   0.00000   0.00000   0.00029   0.00029  -1.09586
    D8        0.94454   0.00000   0.00000   0.00027   0.00027   0.94481
    D9        3.12026   0.00000   0.00000   0.00023   0.00023   3.12049
   D10        2.17981  -0.00001   0.00000  -0.00017  -0.00017   2.17964
   D11        0.02487   0.00000   0.00000  -0.00009  -0.00009   0.02478
   D12       -2.03283   0.00000   0.00000  -0.00009  -0.00009  -2.03292
   D13       -2.10742   0.00000   0.00000   0.00009   0.00009  -2.10733
   D14        1.03107   0.00000   0.00000   0.00000   0.00000   1.03107
   D15       -0.00801   0.00000   0.00000   0.00010   0.00010  -0.00791
   D16        3.13048   0.00000   0.00000   0.00002   0.00002   3.13050
   D17        2.01967   0.00000   0.00000   0.00011   0.00011   2.01978
   D18       -1.12503   0.00000   0.00000   0.00003   0.00003  -1.12500
   D19        2.27330   0.00000   0.00000   0.00009   0.00009   2.27339
   D20       -2.33958   0.00000   0.00000   0.00006   0.00006  -2.33952
   D21       -0.03094   0.00000   0.00000   0.00004   0.00004  -0.03090
   D22        2.18203   0.00000   0.00000  -0.00007  -0.00007   2.18196
   D23       -2.07322   0.00000   0.00000  -0.00007  -0.00007  -2.07329
   D24        0.17239   0.00000   0.00000  -0.00004  -0.00004   0.17235
   D25        0.16160   0.00000   0.00000  -0.00005  -0.00005   0.16154
   D26        2.18953   0.00000   0.00000  -0.00005  -0.00005   2.18948
   D27       -1.84805   0.00000   0.00000  -0.00002  -0.00002  -1.84807
   D28       -1.90634   0.00000   0.00000  -0.00003  -0.00003  -1.90638
   D29        0.12159   0.00000   0.00000  -0.00003  -0.00003   0.12156
   D30        2.36720   0.00000   0.00000   0.00000   0.00000   2.36720
   D31       -2.18547   0.00000   0.00000   0.00008   0.00008  -2.18539
   D32        2.06864   0.00000   0.00000   0.00011   0.00011   2.06875
   D33       -0.17489   0.00000   0.00000   0.00005   0.00005  -0.17484
   D34       -0.16163   0.00000   0.00000   0.00006   0.00006  -0.16157
   D35       -2.19071   0.00000   0.00000   0.00008   0.00008  -2.19062
   D36        1.84895   0.00000   0.00000   0.00002   0.00002   1.84897
   D37        1.90120   0.00000   0.00000   0.00009   0.00009   1.90129
   D38       -0.12787   0.00000   0.00000   0.00012   0.00012  -0.12776
   D39       -2.37140   0.00000   0.00000   0.00006   0.00006  -2.37135
   D40        0.02561   0.00000   0.00000   0.00002   0.00002   0.02563
   D41       -3.12218   0.00000   0.00000  -0.00001  -0.00001  -3.12218
   D42       -2.26144   0.00000   0.00000   0.00001   0.00001  -2.26144
   D43        0.87396   0.00000   0.00000  -0.00002  -0.00002   0.87394
   D44        2.31217   0.00000   0.00000   0.00001   0.00001   2.31217
   D45       -0.83562   0.00000   0.00000  -0.00002  -0.00002  -0.83564
   D46       -0.17330   0.00000   0.00000   0.00006   0.00006  -0.17324
   D47       -2.27939   0.00000   0.00000  -0.00001  -0.00001  -2.27940
   D48        1.82815  -0.00001   0.00000  -0.00005  -0.00005   1.82810
   D49        0.17354   0.00000   0.00000  -0.00006  -0.00006   0.17349
   D50        2.27918   0.00000   0.00000  -0.00004  -0.00004   2.27915
   D51       -1.82818   0.00001   0.00000   0.00002   0.00002  -1.82816
   D52       -0.01074   0.00000   0.00000  -0.00008  -0.00008  -0.01082
   D53        3.13412   0.00000   0.00000   0.00001   0.00001   3.13413
   D54        3.13743   0.00000   0.00000  -0.00005  -0.00005   3.13739
   D55       -0.00089   0.00000   0.00000   0.00004   0.00004  -0.00085
         Item               Value     Threshold  Converged?
 Maximum Force            0.000029     0.000450     YES
 RMS     Force            0.000005     0.000300     YES
 Maximum Displacement     0.000550     0.001800     YES
 RMS     Displacement     0.000110     0.001200     YES
 Predicted change in Energy=-9.981000D-09
 Optimization completed.
    -- Stationary point found.
                           ----------------------------
                           !   Optimized Parameters   !
                           ! (Angstroms and Degrees)  !
 --------------------------                            --------------------------
 ! Name  Definition              Value          Derivative Info.                !
 --------------------------------------------------------------------------------
 ! R1    R(1,2)                  1.5284         -DE/DX =    0.0                 !
 ! R2    R(1,10)                 1.0935         -DE/DX =    0.0                 !
 ! R3    R(1,11)                 1.0951         -DE/DX =    0.0                 !
 ! R4    R(1,12)                 1.0938         -DE/DX =    0.0                 !
 ! R5    R(2,3)                  1.436          -DE/DX =    0.0                 !
 ! R6    R(2,9)                  1.5057         -DE/DX =    0.0                 !
 ! R7    R(2,13)                 1.1023         -DE/DX =    0.0                 !
 ! R8    R(3,4)                  1.4142         -DE/DX =    0.0                 !
 ! R9    R(4,5)                  1.5548         -DE/DX =    0.0                 !
 ! R10   R(4,7)                  1.5527         -DE/DX =    0.0                 !
 ! R11   R(4,8)                  1.4976         -DE/DX =    0.0                 !
 ! R12   R(5,6)                  1.4407         -DE/DX =    0.0                 !
 ! R13   R(5,14)                 1.0961         -DE/DX =    0.0                 !
 ! R14   R(5,15)                 1.0976         -DE/DX =    0.0                 !
 ! R15   R(6,7)                  1.4405         -DE/DX =    0.0                 !
 ! R16   R(7,16)                 1.0962         -DE/DX =    0.0                 !
 ! R17   R(7,17)                 1.0977         -DE/DX =    0.0                 !
 ! R18   R(8,9)                  1.3274         -DE/DX =    0.0                 !
 ! R19   R(8,18)                 1.0827         -DE/DX =    0.0                 !
 ! R20   R(9,19)                 1.0827         -DE/DX =    0.0                 !
 ! A1    A(2,1,10)             110.0494         -DE/DX =    0.0                 !
 ! A2    A(2,1,11)             110.5479         -DE/DX =    0.0                 !
 ! A3    A(2,1,12)             110.5479         -DE/DX =    0.0                 !
 ! A4    A(10,1,11)            108.2956         -DE/DX =    0.0                 !
 ! A5    A(10,1,12)            108.6487         -DE/DX =    0.0                 !
 ! A6    A(11,1,12)            108.6905         -DE/DX =    0.0                 !
 ! A7    A(1,2,3)              110.02           -DE/DX =    0.0                 !
 ! A8    A(1,2,9)              114.8151         -DE/DX =    0.0                 !
 ! A9    A(1,2,13)             108.6582         -DE/DX =    0.0                 !
 ! A10   A(3,2,9)              104.0323         -DE/DX =    0.0                 !
 ! A11   A(3,2,13)             108.3076         -DE/DX =    0.0                 !
 ! A12   A(9,2,13)             110.7804         -DE/DX =    0.0                 !
 ! A13   A(2,3,4)              111.1252         -DE/DX =    0.0                 !
 ! A14   A(3,4,5)              116.1198         -DE/DX =    0.0                 !
 ! A15   A(3,4,7)              115.926          -DE/DX =    0.0                 !
 ! A16   A(3,4,8)              104.9735         -DE/DX =    0.0                 !
 ! A17   A(5,4,7)               83.5542         -DE/DX =    0.0                 !
 ! A18   A(5,4,8)              117.8339         -DE/DX =    0.0                 !
 ! A19   A(7,4,8)              118.1311         -DE/DX =    0.0                 !
 ! A20   A(4,5,6)               91.4314         -DE/DX =    0.0                 !
 ! A21   A(4,5,14)             117.5329         -DE/DX =    0.0                 !
 ! A22   A(4,5,15)             112.0672         -DE/DX =    0.0                 !
 ! A23   A(6,5,14)             112.3163         -DE/DX =    0.0                 !
 ! A24   A(6,5,15)             112.5981         -DE/DX =    0.0                 !
 ! A25   A(14,5,15)            109.8614         -DE/DX =    0.0                 !
 ! A26   A(5,6,7)               91.8757         -DE/DX =    0.0                 !
 ! A27   A(4,7,6)               91.5262         -DE/DX =    0.0                 !
 ! A28   A(4,7,16)             117.4616         -DE/DX =    0.0                 !
 ! A29   A(4,7,17)             112.0382         -DE/DX =    0.0                 !
 ! A30   A(6,7,16)             112.342          -DE/DX =    0.0                 !
 ! A31   A(6,7,17)             112.613          -DE/DX =    0.0                 !
 ! A32   A(16,7,17)            109.845          -DE/DX =    0.0                 !
 ! A33   A(4,8,9)              109.9391         -DE/DX =    0.0                 !
 ! A34   A(4,8,18)             122.5059         -DE/DX =    0.0                 !
 ! A35   A(9,8,18)             127.5539         -DE/DX =    0.0                 !
 ! A36   A(2,9,8)              109.9006         -DE/DX =    0.0                 !
 ! A37   A(2,9,19)             122.9451         -DE/DX =    0.0                 !
 ! A38   A(8,9,19)             127.154          -DE/DX =    0.0                 !
 ! D1    D(10,1,2,3)            57.2165         -DE/DX =    0.0                 !
 ! D2    D(10,1,2,9)           174.1393         -DE/DX =    0.0                 !
 ! D3    D(10,1,2,13)          -61.2015         -DE/DX =    0.0                 !
 ! D4    D(11,1,2,3)           176.7988         -DE/DX =    0.0                 !
 ! D5    D(11,1,2,9)           -66.2784         -DE/DX =    0.0                 !
 ! D6    D(11,1,2,13)           58.3808         -DE/DX =    0.0                 !
 ! D7    D(12,1,2,3)           -62.8045         -DE/DX =    0.0                 !
 ! D8    D(12,1,2,9)            54.1184         -DE/DX =    0.0                 !
 ! D9    D(12,1,2,13)          178.7776         -DE/DX =    0.0                 !
 ! D10   D(1,2,3,4)            124.8939         -DE/DX =    0.0                 !
 ! D11   D(9,2,3,4)              1.4249         -DE/DX =    0.0                 !
 ! D12   D(13,2,3,4)          -116.4725         -DE/DX =    0.0                 !
 ! D13   D(1,2,9,8)           -120.7461         -DE/DX =    0.0                 !
 ! D14   D(1,2,9,19)            59.076          -DE/DX =    0.0                 !
 ! D15   D(3,2,9,8)             -0.4588         -DE/DX =    0.0                 !
 ! D16   D(3,2,9,19)           179.3633         -DE/DX =    0.0                 !
 ! D17   D(13,2,9,8)           115.7184         -DE/DX =    0.0                 !
 ! D18   D(13,2,9,19)          -64.4595         -DE/DX =    0.0                 !
 ! D19   D(2,3,4,5)            130.2505         -DE/DX =    0.0                 !
 ! D20   D(2,3,4,7)           -134.0483         -DE/DX =    0.0                 !
 ! D21   D(2,3,4,8)             -1.7728         -DE/DX =    0.0                 !
 ! D22   D(3,4,5,6)            125.0213         -DE/DX =    0.0                 !
 ! D23   D(3,4,5,14)          -118.787          -DE/DX =    0.0                 !
 ! D24   D(3,4,5,15)             9.8771         -DE/DX =    0.0                 !
 ! D25   D(7,4,5,6)              9.2589         -DE/DX =    0.0                 !
 ! D26   D(7,4,5,14)           125.4506         -DE/DX =    0.0                 !
 ! D27   D(7,4,5,15)          -105.8854         -DE/DX =    0.0                 !
 ! D28   D(8,4,5,6)           -109.2254         -DE/DX =    0.0                 !
 ! D29   D(8,4,5,14)             6.9663         -DE/DX =    0.0                 !
 ! D30   D(8,4,5,15)           135.6304         -DE/DX =    0.0                 !
 ! D31   D(3,4,7,6)           -125.2183         -DE/DX =    0.0                 !
 ! D32   D(3,4,7,16)           118.5242         -DE/DX =    0.0                 !
 ! D33   D(3,4,7,17)           -10.0205         -DE/DX =    0.0                 !
 ! D34   D(5,4,7,6)             -9.2607         -DE/DX =    0.0                 !
 ! D35   D(5,4,7,16)          -125.5182         -DE/DX =    0.0                 !
 ! D36   D(5,4,7,17)           105.9372         -DE/DX =    0.0                 !
 ! D37   D(8,4,7,6)            108.9308         -DE/DX =    0.0                 !
 ! D38   D(8,4,7,16)            -7.3267         -DE/DX =    0.0                 !
 ! D39   D(8,4,7,17)          -135.8714         -DE/DX =    0.0                 !
 ! D40   D(3,4,8,9)              1.4671         -DE/DX =    0.0                 !
 ! D41   D(3,4,8,18)          -178.8875         -DE/DX =    0.0                 !
 ! D42   D(5,4,8,9)           -129.571          -DE/DX =    0.0                 !
 ! D43   D(5,4,8,18)            50.0744         -DE/DX =    0.0                 !
 ! D44   D(7,4,8,9)            132.4774         -DE/DX =    0.0                 !
 ! D45   D(7,4,8,18)           -47.8773         -DE/DX =    0.0                 !
 ! D46   D(4,5,6,7)             -9.9291         -DE/DX =    0.0                 !
 ! D47   D(14,5,6,7)          -130.5992         -DE/DX =    0.0                 !
 ! D48   D(15,5,6,7)           104.7456         -DE/DX =    0.0                 !
 ! D49   D(5,6,7,4)              9.9432         -DE/DX =    0.0                 !
 ! D50   D(5,6,7,16)           130.5876         -DE/DX =    0.0                 !
 ! D51   D(5,6,7,17)          -104.7471         -DE/DX =    0.0                 !
 ! D52   D(4,8,9,2)             -0.6156         -DE/DX =    0.0                 !
 ! D53   D(4,8,9,19)           179.5717         -DE/DX =    0.0                 !
 ! D54   D(18,8,9,2)           179.7616         -DE/DX =    0.0                 !
 ! D55   D(18,8,9,19)           -0.0511         -DE/DX =    0.0                 !
 --------------------------------------------------------------------------------
 GradGradGradGradGradGradGradGradGradGradGradGradGradGradGradGradGradGrad

                          Input orientation:                          
 ---------------------------------------------------------------------
 Center     Atomic      Atomic             Coordinates (Angstroms)
 Number     Number       Type             X           Y           Z
 ---------------------------------------------------------------------
      1          6           0        0.339738   -0.027281   -0.576195
      2          6           0        0.771555   -0.007973    0.889777
      3          8           0        2.109571   -0.514018    1.014841
      4          6           0        2.945756    0.414319    1.677470
      5          6           0        3.791559   -0.145778    2.855782
      6          8           0        5.010138    0.337710    2.258384
      7          6           0        4.334373    0.661247    1.028094
      8          6           0        2.071048    1.599867    1.946186
      9          6           0        0.839923    1.362145    1.510411
     10          1           0        0.416454   -1.042038   -0.976257
     11          1           0       -0.699480    0.303616   -0.675173
     12          1           0        0.976120    0.632865   -1.172612
     13          1           0        0.097915   -0.664503    1.464526
     14          1           0        3.618475    0.279855    3.850933
     15          1           0        3.752736   -1.241547    2.906944
     16          1           0        4.558208    1.677855    0.684617
     17          1           0        4.548334   -0.058264    0.227184
     18          1           0        2.437196    2.494423    2.433899
     19          1           0       -0.013928    2.025306    1.568968
 ---------------------------------------------------------------------
                    Distance matrix (angstroms):
                    1          2          3          4          5
     1  C    0.000000
     2  C    1.528369   0.000000
     3  O    2.429119   1.435970   0.000000
     4  C    3.473520   2.350732   1.414246   0.000000
     5  C    4.869043   3.606188   2.520665   1.554835   0.000000
     6  O    5.475463   4.467457   3.268811   2.145927   1.440687
     7  C    4.359464   3.627762   2.516181   1.552714   2.070358
     8  C    3.465177   2.321601   2.310281   1.497614   2.614345
     9  C    2.556289   1.505684   2.318962   2.315343   3.577151
    10  H    1.093465   2.162746   2.666444   3.944693   5.184510
    11  H    1.095109   2.170277   3.378675   4.339923   5.730536
    12  H    1.093842   2.169324   2.717536   3.471339   4.976037
    13  H    2.151528   1.102343   2.066791   3.052769   3.980914
    14  H    5.517600   4.117796   3.309145   2.279161   1.096105
    15  H    5.025460   3.805011   2.609471   2.214659   1.097649
    16  H    4.721507   4.150042   3.302904   2.276462   2.937234
    17  H    4.284700   3.834790   2.603013   2.212446   2.736768
    18  H    4.451852   3.379446   3.342421   2.271046   2.997156
    19  H    2.989970   2.283092   3.356259   3.371466   4.566315
                    6          7          8          9         10
     6  O    0.000000
     7  C    1.440468   0.000000
     8  C    3.213839   2.616589   0.000000
     9  C    4.358856   3.596536   1.327434   0.000000
    10  H    5.785200   4.718971   4.272940   3.484672   0.000000
    11  H    6.419242   5.326228   4.028352   2.875243   1.773907
    12  H    5.303975   4.015193   3.443960   2.783705   1.776818
    13  H    5.075882   4.460455   3.041812   2.158699   2.490266
    14  H    2.115724   2.937071   2.786579   3.790745   5.941557
    15  H    2.120316   2.736604   3.438715   4.148975   5.123458
    16  H    2.115885   1.096162   2.789911   3.821944   5.225940
    17  H    2.120338   1.097694   3.441121   4.173313   4.414579
    18  H    3.361882   2.989332   1.082662   2.164755   5.312167
    19  H    5.344578   4.589218   2.161115   1.082716   4.008990
                   11         12         13         14         15
    11  H    0.000000
    12  H    1.778620   0.000000
    13  H    2.480203   3.067394   0.000000
    14  H    6.255473   5.687060   4.356729   0.000000
    15  H    5.919571   5.278805   3.971305   1.795495   0.000000
    16  H    5.601862   4.168052   5.097952   3.586510   3.756385
    17  H    5.337111   3.898435   4.658838   3.756397   3.035498
    18  H    4.929980   4.313590   4.048546   2.882311   3.988971
    19  H    2.910390   3.230379   2.694159   4.631232   5.162389
                   16         17         18         19
    16  H    0.000000
    17  H    1.795398   0.000000
    18  H    2.868007   3.980290   0.000000
    19  H    4.669821   5.191905   2.641246   0.000000
 Stoichiometry    C7H10O2
 Framework group  C1[X(C7H10O2)]
 Deg. of freedom    51
 Full point group                 C1      NOp   1
 Largest Abelian subgroup         C1      NOp   1
 Largest concise Abelian subgroup C1      NOp   1
                         Standard orientation:                         
 ---------------------------------------------------------------------
 Center     Atomic      Atomic             Coordinates (Angstroms)
 Number     Number       Type             X           Y           Z
 ---------------------------------------------------------------------
      1          6           0       -2.758104   -0.850775   -0.281350
      2          6           0       -1.729242   -0.017118    0.481782
      3          8           0       -0.478834   -0.720008    0.548377
      4          6           0        0.576851    0.067957    0.033856
      5          6           0        1.843618    0.183231    0.928018
      6          8           0        2.686241   -0.284539   -0.142850
      7          6           0        1.546108   -0.650430   -0.943580
      8          6           0       -0.074474    1.336815   -0.422896
      9          6           0       -1.375785    1.296324   -0.163991
     10          1           0       -2.879308   -1.826484    0.197156
     11          1           0       -3.731033   -0.348160   -0.288509
     12          1           0       -2.436031   -1.005792   -1.315144
     13          1           0       -2.094234    0.138425    1.510250
     14          1           0        2.128993    1.182713    1.275929
     15          1           0        1.814285   -0.512671    1.776366
     16          1           0        1.613000   -0.261390   -1.966196
     17          1           0        1.377827   -1.734880   -0.967710
     18          1           0        0.481519    2.142311   -0.885718
     19          1           0       -2.108106    2.066289   -0.371674
 ---------------------------------------------------------------------
 Rotational constants (GHZ):      3.8667569      1.1504854      1.0620003
 1\1\GINC-ALCHEMY-V\FOpt\RB3LYP\6-31G(2df,p)\C7H10O2\PUCK\28-Jan-2020\0
 \\# b3lyp 6-31G(2df,p) opt Freq\\titel\\0,1\C,0.3397378456,-0.02728136
 41,-0.5761950054\C,0.7715549609,-0.0079730796,0.8897766867\O,2.1095714
 731,-0.5140180225,1.0148408372\C,2.9457557747,0.4143188725,1.677469621
 6\C,3.7915591994,-0.1457778995,2.8557824533\O,5.0101381361,0.337709674
 6,2.2583836072\C,4.334372917,0.6612468223,1.0280939915\C,2.071048076,1
 .5998669273,1.9461860422\C,0.8399229107,1.3621449229,1.5104108533\H,0.
 4164542884,-1.0420382604,-0.9762569227\H,-0.6994804872,0.3036160705,-0
 .6751733678\H,0.9761204456,0.632864978,-1.1726120846\H,0.0979149494,-0
 .6645029372,1.4645261958\H,3.6184747106,0.2798547475,3.8509326258\H,3.
 7527356981,-1.2415467158,2.9069437755\H,4.5582080826,1.6778548898,0.68
 46174131\H,4.5483335435,-0.0582641452,0.2271838235\H,2.4371955237,2.49
 44228032,2.4338986437\H,-0.0139276883,2.0253064957,1.5689679901\\Versi
 on=ES64L-G09RevD.01\State=1-A\HF=-423.1707671\RMSD=3.098e-09\RMSF=1.27
 2e-05\Dipole=-0.9456579,0.4258174,-0.1115043\Quadrupole=-1.914956,0.94
 57761,0.9691799,-0.0569996,-1.3680796,-0.0987189\PG=C01 [X(C7H10O2)]\\
 @


 THE SECRET OF SUCCESS IN LIFE IS TO EAT WHAT YOU LIKE, AND LET THE FOOD
 FIGHT IT OUT INSIDE YOU. -- FROM A FORTUNE COOKIE
 Job cpu time:       0 days  0 hours  7 minutes  7.5 seconds.
 File lengths (MBytes):  RWF=     52 Int=      0 D2E=      0 Chk=      7 Scr=      1
 Normal termination of Gaussian 09 at Tue Jan 28 02:51:13 2020.
 Link1:  Proceeding to internal job step number  2.
 ----------------------------------------------------------------------
 #N Geom=AllCheck Guess=TCheck SCRF=Check GenChk RB3LYP/6-31G(2df,p) Fr
 eq
 ----------------------------------------------------------------------
 1/10=4,29=7,30=1,38=1,40=1/1,3;
 2/12=2,40=1/2;
 3/5=1,6=6,7=104,11=2,14=-4,16=1,25=1,30=1,70=2,71=2,74=-5,116=1,140=1/1,2,3;
 4/5=101/1;
 5/5=2,98=1/2;
 8/6=4,10=90,11=11/1;
 11/6=1,8=1,9=11,15=111,16=1/1,2,10;
 10/6=1/2;
 6/7=2,8=2,9=2,10=2,18=1,28=1/1;
 7/8=1,10=1,25=1/1,2,3,16;
 1/10=4,30=1/3;
 99//99;
 Structure from the checkpoint file:  "/scratch/puck/g09_ecf95c78-a24b-43ea-aff8-ecf19154e2da/Gau-60102.chk"
 -----
 titel
 -----
 Charge =  0 Multiplicity = 1
 Redundant internal coordinates found in file.
 C,0,0.3397378456,-0.0272813641,-0.5761950054
 C,0,0.7715549609,-0.0079730796,0.8897766867
 O,0,2.1095714731,-0.5140180225,1.0148408372
 C,0,2.9457557747,0.4143188725,1.6774696216
 C,0,3.7915591994,-0.1457778995,2.8557824533
 O,0,5.0101381361,0.3377096746,2.2583836072
 C,0,4.334372917,0.6612468223,1.0280939915
 C,0,2.071048076,1.5998669273,1.9461860422
 C,0,0.8399229107,1.3621449229,1.5104108533
 H,0,0.4164542884,-1.0420382604,-0.9762569227
 H,0,-0.6994804872,0.3036160705,-0.6751733678
 H,0,0.9761204456,0.632864978,-1.1726120846
 H,0,0.0979149494,-0.6645029372,1.4645261958
 H,0,3.6184747106,0.2798547475,3.8509326258
 H,0,3.7527356981,-1.2415467158,2.9069437755
 H,0,4.5582080826,1.6778548898,0.6846174131
 H,0,4.5483335435,-0.0582641452,0.2271838235
 H,0,2.4371955237,2.4944228032,2.4338986437
 H,0,-0.0139276883,2.0253064957,1.5689679901
 Recover connectivity data from disk.

 GradGradGradGradGradGradGradGradGradGradGradGradGradGradGradGradGradGrad
 Berny optimization.
 Initialization pass.
                           ----------------------------
                           !    Initial Parameters    !
                           ! (Angstroms and Degrees)  !
 --------------------------                            --------------------------
 ! Name  Definition              Value          Derivative Info.                !
 --------------------------------------------------------------------------------
 ! R1    R(1,2)                  1.5284         calculate D2E/DX2 analytically  !
 ! R2    R(1,10)                 1.0935         calculate D2E/DX2 analytically  !
 ! R3    R(1,11)                 1.0951         calculate D2E/DX2 analytically  !
 ! R4    R(1,12)                 1.0938         calculate D2E/DX2 analytically  !
 ! R5    R(2,3)                  1.436          calculate D2E/DX2 analytically  !
 ! R6    R(2,9)                  1.5057         calculate D2E/DX2 analytically  !
 ! R7    R(2,13)                 1.1023         calculate D2E/DX2 analytically  !
 ! R8    R(3,4)                  1.4142         calculate D2E/DX2 analytically  !
 ! R9    R(4,5)                  1.5548         calculate D2E/DX2 analytically  !
 ! R10   R(4,7)                  1.5527         calculate D2E/DX2 analytically  !
 ! R11   R(4,8)                  1.4976         calculate D2E/DX2 analytically  !
 ! R12   R(5,6)                  1.4407         calculate D2E/DX2 analytically  !
 ! R13   R(5,14)                 1.0961         calculate D2E/DX2 analytically  !
 ! R14   R(5,15)                 1.0976         calculate D2E/DX2 analytically  !
 ! R15   R(6,7)                  1.4405         calculate D2E/DX2 analytically  !
 ! R16   R(7,16)                 1.0962         calculate D2E/DX2 analytically  !
 ! R17   R(7,17)                 1.0977         calculate D2E/DX2 analytically  !
 ! R18   R(8,9)                  1.3274         calculate D2E/DX2 analytically  !
 ! R19   R(8,18)                 1.0827         calculate D2E/DX2 analytically  !
 ! R20   R(9,19)                 1.0827         calculate D2E/DX2 analytically  !
 ! A1    A(2,1,10)             110.0494         calculate D2E/DX2 analytically  !
 ! A2    A(2,1,11)             110.5479         calculate D2E/DX2 analytically  !
 ! A3    A(2,1,12)             110.5479         calculate D2E/DX2 analytically  !
 ! A4    A(10,1,11)            108.2956         calculate D2E/DX2 analytically  !
 ! A5    A(10,1,12)            108.6487         calculate D2E/DX2 analytically  !
 ! A6    A(11,1,12)            108.6905         calculate D2E/DX2 analytically  !
 ! A7    A(1,2,3)              110.02           calculate D2E/DX2 analytically  !
 ! A8    A(1,2,9)              114.8151         calculate D2E/DX2 analytically  !
 ! A9    A(1,2,13)             108.6582         calculate D2E/DX2 analytically  !
 ! A10   A(3,2,9)              104.0323         calculate D2E/DX2 analytically  !
 ! A11   A(3,2,13)             108.3076         calculate D2E/DX2 analytically  !
 ! A12   A(9,2,13)             110.7804         calculate D2E/DX2 analytically  !
 ! A13   A(2,3,4)              111.1252         calculate D2E/DX2 analytically  !
 ! A14   A(3,4,5)              116.1198         calculate D2E/DX2 analytically  !
 ! A15   A(3,4,7)              115.926          calculate D2E/DX2 analytically  !
 ! A16   A(3,4,8)              104.9735         calculate D2E/DX2 analytically  !
 ! A17   A(5,4,7)               83.5542         calculate D2E/DX2 analytically  !
 ! A18   A(5,4,8)              117.8339         calculate D2E/DX2 analytically  !
 ! A19   A(7,4,8)              118.1311         calculate D2E/DX2 analytically  !
 ! A20   A(4,5,6)               91.4314         calculate D2E/DX2 analytically  !
 ! A21   A(4,5,14)             117.5329         calculate D2E/DX2 analytically  !
 ! A22   A(4,5,15)             112.0672         calculate D2E/DX2 analytically  !
 ! A23   A(6,5,14)             112.3163         calculate D2E/DX2 analytically  !
 ! A24   A(6,5,15)             112.5981         calculate D2E/DX2 analytically  !
 ! A25   A(14,5,15)            109.8614         calculate D2E/DX2 analytically  !
 ! A26   A(5,6,7)               91.8757         calculate D2E/DX2 analytically  !
 ! A27   A(4,7,6)               91.5262         calculate D2E/DX2 analytically  !
 ! A28   A(4,7,16)             117.4616         calculate D2E/DX2 analytically  !
 ! A29   A(4,7,17)             112.0382         calculate D2E/DX2 analytically  !
 ! A30   A(6,7,16)             112.342          calculate D2E/DX2 analytically  !
 ! A31   A(6,7,17)             112.613          calculate D2E/DX2 analytically  !
 ! A32   A(16,7,17)            109.845          calculate D2E/DX2 analytically  !
 ! A33   A(4,8,9)              109.9391         calculate D2E/DX2 analytically  !
 ! A34   A(4,8,18)             122.5059         calculate D2E/DX2 analytically  !
 ! A35   A(9,8,18)             127.5539         calculate D2E/DX2 analytically  !
 ! A36   A(2,9,8)              109.9006         calculate D2E/DX2 analytically  !
 ! A37   A(2,9,19)             122.9451         calculate D2E/DX2 analytically  !
 ! A38   A(8,9,19)             127.154          calculate D2E/DX2 analytically  !
 ! D1    D(10,1,2,3)            57.2165         calculate D2E/DX2 analytically  !
 ! D2    D(10,1,2,9)           174.1393         calculate D2E/DX2 analytically  !
 ! D3    D(10,1,2,13)          -61.2015         calculate D2E/DX2 analytically  !
 ! D4    D(11,1,2,3)           176.7988         calculate D2E/DX2 analytically  !
 ! D5    D(11,1,2,9)           -66.2784         calculate D2E/DX2 analytically  !
 ! D6    D(11,1,2,13)           58.3808         calculate D2E/DX2 analytically  !
 ! D7    D(12,1,2,3)           -62.8045         calculate D2E/DX2 analytically  !
 ! D8    D(12,1,2,9)            54.1184         calculate D2E/DX2 analytically  !
 ! D9    D(12,1,2,13)          178.7776         calculate D2E/DX2 analytically  !
 ! D10   D(1,2,3,4)            124.8939         calculate D2E/DX2 analytically  !
 ! D11   D(9,2,3,4)              1.4249         calculate D2E/DX2 analytically  !
 ! D12   D(13,2,3,4)          -116.4725         calculate D2E/DX2 analytically  !
 ! D13   D(1,2,9,8)           -120.7461         calculate D2E/DX2 analytically  !
 ! D14   D(1,2,9,19)            59.076          calculate D2E/DX2 analytically  !
 ! D15   D(3,2,9,8)             -0.4588         calculate D2E/DX2 analytically  !
 ! D16   D(3,2,9,19)           179.3633         calculate D2E/DX2 analytically  !
 ! D17   D(13,2,9,8)           115.7184         calculate D2E/DX2 analytically  !
 ! D18   D(13,2,9,19)          -64.4595         calculate D2E/DX2 analytically  !
 ! D19   D(2,3,4,5)            130.2505         calculate D2E/DX2 analytically  !
 ! D20   D(2,3,4,7)           -134.0483         calculate D2E/DX2 analytically  !
 ! D21   D(2,3,4,8)             -1.7728         calculate D2E/DX2 analytically  !
 ! D22   D(3,4,5,6)            125.0213         calculate D2E/DX2 analytically  !
 ! D23   D(3,4,5,14)          -118.787          calculate D2E/DX2 analytically  !
 ! D24   D(3,4,5,15)             9.8771         calculate D2E/DX2 analytically  !
 ! D25   D(7,4,5,6)              9.2589         calculate D2E/DX2 analytically  !
 ! D26   D(7,4,5,14)           125.4506         calculate D2E/DX2 analytically  !
 ! D27   D(7,4,5,15)          -105.8854         calculate D2E/DX2 analytically  !
 ! D28   D(8,4,5,6)           -109.2254         calculate D2E/DX2 analytically  !
 ! D29   D(8,4,5,14)             6.9663         calculate D2E/DX2 analytically  !
 ! D30   D(8,4,5,15)           135.6304         calculate D2E/DX2 analytically  !
 ! D31   D(3,4,7,6)           -125.2183         calculate D2E/DX2 analytically  !
 ! D32   D(3,4,7,16)           118.5242         calculate D2E/DX2 analytically  !
 ! D33   D(3,4,7,17)           -10.0205         calculate D2E/DX2 analytically  !
 ! D34   D(5,4,7,6)             -9.2607         calculate D2E/DX2 analytically  !
 ! D35   D(5,4,7,16)          -125.5182         calculate D2E/DX2 analytically  !
 ! D36   D(5,4,7,17)           105.9372         calculate D2E/DX2 analytically  !
 ! D37   D(8,4,7,6)            108.9308         calculate D2E/DX2 analytically  !
 ! D38   D(8,4,7,16)            -7.3267         calculate D2E/DX2 analytically  !
 ! D39   D(8,4,7,17)          -135.8714         calculate D2E/DX2 analytically  !
 ! D40   D(3,4,8,9)              1.4671         calculate D2E/DX2 analytically  !
 ! D41   D(3,4,8,18)          -178.8875         calculate D2E/DX2 analytically  !
 ! D42   D(5,4,8,9)           -129.571          calculate D2E/DX2 analytically  !
 ! D43   D(5,4,8,18)            50.0744         calculate D2E/DX2 analytically  !
 ! D44   D(7,4,8,9)            132.4774         calculate D2E/DX2 analytically  !
 ! D45   D(7,4,8,18)           -47.8773         calculate D2E/DX2 analytically  !
 ! D46   D(4,5,6,7)             -9.9291         calculate D2E/DX2 analytically  !
 ! D47   D(14,5,6,7)          -130.5992         calculate D2E/DX2 analytically  !
 ! D48   D(15,5,6,7)           104.7456         calculate D2E/DX2 analytically  !
 ! D49   D(5,6,7,4)              9.9432         calculate D2E/DX2 analytically  !
 ! D50   D(5,6,7,16)           130.5876         calculate D2E/DX2 analytically  !
 ! D51   D(5,6,7,17)          -104.7471         calculate D2E/DX2 analytically  !
 ! D52   D(4,8,9,2)             -0.6156         calculate D2E/DX2 analytically  !
 ! D53   D(4,8,9,19)           179.5717         calculate D2E/DX2 analytically  !
 ! D54   D(18,8,9,2)           179.7616         calculate D2E/DX2 analytically  !
 ! D55   D(18,8,9,19)           -0.0511         calculate D2E/DX2 analytically  !
 --------------------------------------------------------------------------------
 Trust Radius=3.00D-01 FncErr=1.00D-07 GrdErr=1.00D-07
 Number of steps in this run=      2 maximum allowed number of steps=      2.
[...]
 01477980,-0.11521367,-0.01571934,-0.02273225,0.58105219,0.00651616,-0.
 00357045,0.00062966,-0.01935049,0.00892131,0.00668394,-0.05104627,-0.1
 3778448,-0.05218695,-0.04476539,0.45688494,-0.00349102,-0.00201041,-0.
 00090262,-0.01632748,0.00921623,-0.01891528,-0.03905746,-0.04275815,-0
 .08780809,0.03907848,0.02866889,0.39072618,-0.00062594,0.00026438,0.00
 018898,-0.00039969,-0.00081725,-0.00311150,-0.01320752,-0.00216780,-0.
 00946974,-0.05702939,0.02965683,-0.05482692,0.35775470,-0.00196744,0.0
 0112931,0.00012556,0.00232129,-0.00208362,-0.00319831,-0.01862169,0.00
 720714,-0.01907224,0.02643524,-0.09197727,0.02146628,0.00049671,0.5762
 1545,-0.00051408,0.00067902,0.00022661,0.00295864,-0.00081905,-0.00229
 565,-0.01531828,-0.00656762,-0.00935556,-0.02430077,0.01832073,-0.1067
 9414,-0.03842496,0.02448848,0.58430030,-0.00095679,0.00022352,0.000182
 29,0.00034960,-0.00167968,-0.00116427,-0.01018830,0.00570635,-0.002801
 78,-0.09545932,-0.01134363,-0.02511846,-0.16046213,-0.03004504,0.01912
 407,0.36519455,-0.00018605,0.00000024,-0.00001430,0.00037152,0.0006030
 5,-0.00032916,0.00231675,0.00075111,-0.00234104,-0.00244321,0.00840358
 ,0.01568425,-0.04788964,-0.07618608,0.00802515,0.05050767,0.12044428,0
 .00038012,0.00019023,-0.00014804,-0.00045683,-0.00102988,0.00110295,-0
 .00410885,-0.00108680,0.00570044,-0.02082212,0.01278183,-0.02935691,0.
 06884487,0.01487374,-0.08148538,0.03007165,-0.08177418,0.31264213,-0.0
 0014141,0.00015810,0.00013264,-0.00082710,-0.00269586,0.00210962,-0.01
 536413,-0.00683466,-0.00684630,-0.11736909,-0.01976781,0.06340637,-0.0
 0610433,-0.01153149,0.03133900,-0.09366393,0.02277402,-0.08290544,0.38
 325652,0.00016573,-0.00003141,-0.00010605,0.00194822,-0.00438113,0.002
 01759,-0.02605849,-0.00668355,0.00106902,0.00039914,-0.07633800,-0.006
 90176,-0.01111482,-0.00371578,0.05094214,0.00157220,-0.07249593,0.0190
 8111,0.02726429,0.60496048,-0.00035213,0.00000810,0.00007243,-0.001240
 84,-0.00289315,0.00021350,-0.01660246,-0.00087881,0.00700280,0.0409830
 0,-0.00905256,-0.06662504,0.02081365,0.03689059,-0.08350746,-0.0344520
 7,0.02703757,-0.15235486,-0.06890605,0.00259442,0.53433254,0.00044985,
 0.00079715,0.00265905,-0.00548469,-0.02384509,-0.01368153,-0.00064617,
 -0.01262880,-0.00715169,-0.11546995,0.06144120,0.01501269,-0.01166602,
 0.01180384,-0.00172741,-0.00145539,-0.00093817,-0.00212687,-0.01728839
 ,0.02012693,0.00698097,0.73689616,0.00177715,-0.00422625,0.00059323,-0
 .02586229,-0.01733367,-0.01785986,-0.00421553,-0.04582354,-0.02264945,
 0.04330214,-0.15200847,-0.02286218,0.01149804,-0.00871804,0.00202628,0
 .00083386,-0.00048543,-0.00169975,0.00529005,0.00994615,0.00375607,0.0
 9827570,0.57195957,0.00028718,-0.00209650,0.00072009,-0.01389841,-0.01
 670849,-0.00314148,-0.00279208,-0.02586746,-0.00864884,0.00640389,-0.0
 1736566,-0.07746006,-0.00828256,0.02387106,0.00792262,-0.00130855,-0.0
 0234609,0.00270318,0.00707513,-0.01378895,-0.00414919,0.20594358,0.214
 21933,0.28726744,0.00120532,-0.01170234,-0.00615577,-0.07971911,-0.015
 16456,-0.00707603,-0.02814870,0.03369228,0.00680213,-0.03896835,0.0239
 2309,-0.00299824,0.00263198,0.00096307,0.00262470,-0.00016467,-0.00081
 238,-0.00043270,0.00277364,0.00237232,0.00075558,-0.48605369,-0.070158
 97,-0.14881169,0.86013560,-0.00617233,0.00129555,-0.00812100,0.0044155
 0,-0.17147061,-0.04050799,0.02351348,-0.02948828,-0.00681964,0.0253301
 8,0.00393543,0.00434094,0.00038655,-0.00380437,-0.00138960,-0.00011972
 ,0.00056139,0.00003387,-0.00000701,-0.00359615,-0.00153926,-0.06987849
 ,-0.10929014,-0.04531737,-0.09126422,0.49064584,-0.00196641,-0.0317270
 3,-0.01661834,0.00046507,-0.04328008,-0.08941304,0.00253489,-0.0056746
 0,0.00011951,-0.00269641,0.00391436,0.01030260,0.00051732,-0.00132827,
 -0.00007085,-0.00023500,-0.00012876,0.00032919,0.00123143,-0.00087296,
 -0.00052663,-0.14902997,-0.04496959,-0.10960546,0.15710098,0.12888426,
 0.23985362,-0.04724020,0.01794351,0.00889091,-0.00089268,-0.00909441,-
 0.00470433,0.00137437,-0.00017700,0.00109882,-0.00022229,-0.00048966,-
 0.00033631,0.00005102,0.00015790,0.00006406,0.00003965,0.00001100,0.00
 006640,0.00002971,-0.00004536,-0.00004803,0.00028642,-0.00021700,-0.00
 036513,-0.00008740,0.00073543,-0.00183690,0.04694203,0.01757732,-0.279
 35384,-0.08852387,0.00001308,0.00005290,0.00122143,-0.00050643,0.00090
 206,0.00024301,-0.00024696,-0.00023047,-0.00002698,0.00002314,0.000025
 21,0.00003396,-0.00004464,0.00002426,0.00003157,0.00006473,0.00001096,
 0.00000497,0.00066897,0.00030349,-0.00004789,0.00005701,0.00086457,-0.
 00044059,-0.01985998,0.30100012,0.00773447,-0.08681720,-0.07958603,0.0
 0268012,-0.03287357,-0.01403272,0.00212313,0.00133722,0.00236400,-0.00
 025582,-0.00071807,-0.00045938,0.00005932,0.00025281,0.00017126,-0.000
 00401,0.00002674,0.00004369,0.00007913,0.00009229,-0.00000082,0.000238
 43,-0.00164370,-0.00068381,-0.00277268,0.00280757,-0.00507403,-0.00754
 296,0.09728846,0.08809736,-0.28280988,0.07550268,-0.02130256,-0.008635
 29,0.00191087,0.00251859,-0.00063006,-0.00045929,-0.00282846,0.0010212
 9,0.00144847,-0.00004182,-0.00009144,-0.00034380,-0.00011301,-0.000186
 52,-0.00003307,-0.00002483,-0.00003675,0.00002561,0.00010020,-0.000076
 21,-0.00021940,-0.00011675,0.00028348,0.00037174,0.00038578,-0.0013249
 2,-0.00018837,0.00017797,0.30785279,0.07548810,-0.07039175,0.00725171,
 -0.00130451,-0.00192759,-0.00057419,0.00019441,0.00167572,-0.00047244,
 -0.00011954,-0.00022163,0.00029866,-0.00006849,0.00006869,0.00001597,0
 .00001536,-0.00000169,-0.00002157,0.00000905,-0.00004845,-0.00002555,0
 .00010055,0.00016705,0.00008552,-0.00014706,0.00003096,0.00030930,0.02
 890662,-0.00796596,0.00368948,-0.08385711,0.07234231,-0.01943594,0.006
 88785,-0.05042429,-0.02851987,0.00986803,0.00259481,-0.00532333,-0.001
 59184,-0.00655161,0.00023751,0.00244405,-0.00051191,-0.00018714,-0.000
 60610,-0.00021261,-0.00040533,-0.00005169,0.00012554,-0.00003936,-0.00
 004787,-0.00025835,-0.00004467,0.00023026,-0.00002028,0.00051472,-0.00
 016097,0.00127835,0.01164945,-0.00248310,0.00050591,0.02429500,-0.0075
 0356,0.05130512,-0.13893758,-0.09502428,0.08431883,0.00398035,0.006057
 64,-0.00600544,0.00184256,0.00007625,0.00119508,-0.00007941,-0.0002883
 7,-0.00028487,0.00005795,0.00007245,0.00000194,0.00004760,-0.00000628,
 0.00004594,0.00003534,0.00005557,-0.00009197,0.00014164,0.00009978,0.0
 0023161,0.00041686,0.00048394,0.00015698,0.00133470,0.00257309,-0.0022
 7475,-0.01608060,-0.01914958,0.01614417,0.14672017,-0.09536935,-0.1459
 2396,0.08592262,0.00068148,0.00005833,-0.00063600,0.00046389,-0.000012
 57,-0.00045079,0.00009200,0.00026634,0.00029413,-0.00008567,-0.0000798
 0,0.00004015,0.00002614,0.00001496,-0.00015635,0.00002927,0.00002891,0
 .00016614,0.00006255,0.00036529,0.00020675,0.00089208,0.00060980,-0.00
 045233,-0.01802439,-0.01659249,0.01654240,0.00633742,0.00626501,-0.006
 74374,0.10473553,0.15384365,0.08198906,0.08516834,-0.12134541,0.021776
 49,0.01991204,-0.02080127,-0.00035187,-0.00153835,0.00366502,-0.000134
 73,0.00020496,0.00001765,0.00010920,0.00008483,-0.00009260,-0.00004260
 ,-0.00002832,0.00007199,-0.00011355,0.00002273,-0.00029247,-0.00072146
 ,-0.00056649,0.00024143,0.00105868,0.00150272,0.00225541,-0.00769938,-
 0.00688712,0.00643806,-0.00217447,-0.00296792,0.00154881,-0.09126572,-
 0.09438311,0.13484612,0.00664954,0.00335601,-0.00514030,-0.12088878,-0
 .08096618,0.07394740,-0.03734289,-0.01135753,0.00594432,-0.00232993,0.
 00242426,0.00750871,-0.00048286,-0.00010619,0.00011418,-0.00058402,0.0
 0038123,-0.00092271,-0.00028561,-0.00167697,-0.00114626,0.00068004,0.0
 0084830,0.00059121,0.00271768,-0.00387148,-0.00207382,-0.00000268,-0.0
 0009010,0.00041363,0.00054259,-0.00012669,0.00116774,0.00056027,-0.000
 06339,-0.00240568,0.15114413,-0.00104793,0.00121743,-0.00008851,-0.088
 22471,-0.14032405,0.07923659,0.01361881,0.01102050,-0.00471996,-0.0009
 1106,-0.00211462,-0.00151685,0.00022732,-0.00025624,0.00011364,0.00007
 122,0.00001813,0.00007336,0.00037770,0.00104188,0.00049408,0.00160516,
 -0.00329835,-0.00085047,-0.01946047,-0.01907248,0.01254446,0.00047242,
 0.00078725,0.00027212,0.00010331,0.00000242,0.00028333,0.00027620,0.00
 121812,-0.00040610,0.09262544,0.14867301,0.01776800,0.02191103,-0.0221
 2865,0.07296853,0.07690292,-0.11485029,-0.00014064,-0.00457255,0.00723
 669,-0.00169202,-0.00172450,0.00008026,0.00004975,0.00025823,-0.000046
 08,0.00002561,0.00012810,-0.00016105,-0.00015664,0.00014437,-0.0002575
 7,-0.00010977,-0.00142649,0.00002253,-0.00898257,-0.00911913,0.0075699
 2,0.00051434,-0.00065505,0.00159234,-0.00047674,0.00012714,0.00104857,
 -0.00230228,-0.00038373,-0.00623648,-0.07774152,-0.08276891,0.12735284
 ,-0.00030383,0.00017899,0.00000759,0.00101920,-0.00038325,-0.00066973,
 -0.00357351,-0.00033233,-0.00199565,0.00760376,-0.01019829,-0.01233313
 ,-0.05647763,0.01377562,0.02338484,-0.00793514,0.00517306,0.03101105,-
 0.00411199,0.00392052,-0.00194172,0.00139776,-0.00099643,0.00106727,-0
 .00025736,-0.00023859,-0.00001740,0.00002350,0.00000807,0.00004907,-0.
 00006377,0.00001966,-0.00011933,0.00000369,0.00000439,-0.00001032,-0.0
 0008857,0.00002199,-0.00000812,0.05655372,0.00004089,-0.00005896,0.000
 02643,-0.00007231,0.00024447,0.00009369,0.00045763,0.00067517,0.001061
 97,-0.00179274,0.00337407,0.00887288,0.01467659,-0.09788501,-0.0981598
 1,-0.00284452,0.00827883,0.01348897,-0.00107268,-0.00139188,0.00212931
 ,0.00004685,0.00114229,-0.00037224,-0.00008985,0.00007706,-0.00003180,
 -0.00000102,-0.00000481,-0.00002069,0.00000796,-0.00000004,0.00001402,
 0.00000047,0.00000920,0.00000117,-0.00000364,-0.00008264,-0.00001548,-
 0.01278184,0.09751598,-0.00042482,0.00024333,0.00001484,0.00137464,-0.
 00051224,-0.00064514,-0.00309254,-0.00017114,-0.00206852,0.00543135,-0
 .00702661,-0.01050227,0.02947561,-0.09681426,-0.25449892,0.00840789,0.
 00185303,-0.00991145,0.00063444,0.00151844,-0.00102359,0.00091197,-0.0
 0169909,0.00162403,-0.00069093,0.00025200,0.00020762,0.00004897,0.0000
 0534,0.00006029,-0.00010599,0.00001466,-0.00013531,0.00002763,-0.00002
 610,0.00002786,-0.00024040,-0.00008601,0.00002813,-0.04101654,0.100766
 05,0.27692842,0.00021519,-0.00022842,-0.00001146,-0.00057478,0.0004213
 6,0.00009987,0.00239510,-0.00105963,0.00223423,-0.00006093,0.02128109,
 0.00102404,-0.04684553,0.00644863,-0.00201955,-0.00705441,-0.03505431,
 0.01080570,-0.00343336,-0.00212077,-0.00391299,-0.00095885,-0.00014393
 ,-0.00367633,-0.00056878,0.00095228,0.00033581,-0.00004135,-0.00002719
 ,-0.00009177,0.00005235,0.00001339,0.00007565,-0.00001283,0.00002226,0
 .00000119,0.00004428,-0.00004252,-0.00012938,0.00417234,0.00374130,-0.
 00103860,0.05143349,-0.00007335,0.00016002,0.00000283,0.00059123,-0.00
 002723,-0.00006278,-0.00060116,0.00217589,-0.00080545,0.00033220,-0.01
 032055,-0.00191526,0.00340083,-0.30118674,0.00324479,-0.01113779,-0.00
 370873,0.00755377,-0.00103698,-0.00056963,-0.00202772,0.00032376,0.000
 30835,0.00174095,-0.00027815,-0.00050947,-0.00008717,0.00003477,0.0000
 2744,0.00007195,-0.00001697,-0.00000601,-0.00003263,-0.00000007,-0.000
 00615,-0.00003269,0.00009568,0.00013671,0.00006255,0.00185207,-0.01153
 584,0.00082617,0.00629035,0.32516690,0.00023050,-0.00017884,-0.0000398
 6,-0.00076021,0.00004192,0.00015912,0.00169646,-0.00094610,0.00257433,
 -0.00202740,0.02226658,-0.00020230,-0.00019076,0.00236902,-0.05229099,
 0.00565973,0.01603568,-0.00060916,0.00091685,-0.00070708,0.00090254,0.
 00012483,-0.00041785,-0.00308663,-0.00047866,0.00087953,0.00028376,-0.
 00004214,-0.00002686,-0.00007712,0.00005177,-0.00000043,0.00007522,-0.
 00000888,0.00000945,0.00000319,-0.00005607,0.00000683,-0.00007736,0.00
 072542,-0.02920015,0.00175292,-0.00573058,-0.00997196,0.05140650,-0.00
 015319,0.00002157,0.00007986,0.00102070,-0.00133079,0.00069657,-0.0050
 8398,-0.00119895,-0.00083337,0.00256202,-0.02295779,0.00530856,-0.0047
 2815,0.00185063,0.00307497,0.00615242,0.01641339,-0.00940926,-0.066124
 07,-0.05452560,0.01662886,0.00252826,-0.00041137,-0.00155948,-0.000336
 37,0.00010304,-0.00031385,0.00002933,0.00001632,0.00002640,-0.00003181
 ,0.00001050,-0.00007977,0.00004446,0.00000465,-0.00003299,-0.00053502,
 0.00019378,0.00004291,0.00085783,-0.00019068,0.00044269,0.00126728,0.0
 0011695,-0.00001955,0.05821552,-0.00006991,-0.00009708,0.00001906,0.00
 050128,-0.00037909,0.00040754,-0.00116307,0.00031414,-0.00016795,0.001
 62771,0.00055244,-0.00065794,0.00115347,0.00018870,-0.00091693,0.00175
 436,0.00046006,0.00877103,-0.05049799,-0.27505019,0.06351602,0.0006267
 2,0.00025438,-0.00035056,-0.00039106,0.00039579,-0.00009854,0.00003167
 ,0.00002089,-0.00001670,-0.00001942,0.00002757,-0.00003978,-0.00000400
 ,0.00001097,-0.00006428,-0.00023098,0.00007487,-0.00002954,-0.00008236
 ,-0.00012452,0.00009779,-0.00032621,-0.00033006,0.00001580,0.05389881,
 0.29234133,0.00003450,-0.00004395,0.00001823,-0.00029667,0.00038731,-0
 .00006113,0.00070574,0.00078515,-0.00000937,0.00201960,0.00562142,-0.0
 0283952,-0.00204406,0.00138889,-0.00201865,0.00320887,0.02700966,-0.01
 628442,0.01279213,0.06073287,-0.06751189,-0.00039522,0.00039828,0.0013
 3842,0.00011641,-0.00030524,0.00002768,0.00000282,0.00000317,-0.000014
 71,0.00001077,0.00000813,0.00002446,-0.00000108,-0.00000593,0.00001694
 ,0.00015344,-0.00006219,0.00000614,0.00049052,0.00053983,-0.00065691,0
 .00120003,0.00090093,-0.00077536,-0.01452347,-0.07668092,0.08043600,0.
 00001640,-0.00020411,0.00014758,-0.00066628,0.00061954,-0.00022277,0.0
 0430081,0.00040674,-0.00146271,-0.00655884,0.02258651,0.01997177,-0.00
 273751,-0.00267718,-0.00112701,0.00697371,-0.00997375,-0.01989518,-0.0
 6230100,0.03744107,0.04287536,-0.00288187,-0.00357296,0.00214785,-0.00
 071024,0.00135669,0.00028455,-0.00005652,-0.00006966,-0.00009877,0.000
 04343,0.00001748,-0.00000099,-0.00003391,0.00009331,-0.00000226,0.0002
 7842,-0.00029532,-0.00006571,0.00117207,-0.00001779,0.00006383,0.00020
 584,0.00011767,0.00024639,0.00456966,-0.00642164,-0.00365978,0.0583958
 6,-0.00004198,0.00015100,-0.00008190,0.00002581,-0.00001013,-0.0000480
 5,0.00036603,0.00115197,0.00044365,-0.00250333,0.00173495,0.00304762,0
 .00062357,-0.00043835,-0.00005446,-0.00408593,0.01322133,0.00814848,0.
 03745108,-0.17099146,-0.11982583,0.00038951,-0.00025896,0.00027710,-0.
 00034746,0.00013388,-0.00014938,0.00002327,0.00002848,0.00003306,-0.00
 003186,-0.00001584,0.00002371,0.00003185,-0.00008285,0.00004179,0.0000
 8463,0.00002512,0.00004923,-0.00020348,-0.00017193,-0.00010891,0.00028
 805,-0.00008063,-0.00011457,0.00764936,-0.01895601,-0.02055424,-0.0395
 1507,0.17428852,0.00003962,0.00005028,-0.00007138,0.00040651,-0.000011
 87,0.00041442,-0.00095324,0.00044792,0.00142825,0.00275779,-0.00753822
 ,-0.00564392,-0.00394820,-0.00264708,0.00013855,-0.00160846,-0.0091971
 5,-0.03152092,0.03990338,-0.11806389,-0.16769761,0.00020217,0.00120002
 ,-0.00054336,-0.00011495,-0.00032662,-0.00027210,0.00003587,0.00003022
 ,0.00004783,-0.00001624,-0.00001004,0.00002954,0.00000342,-0.00005307,
 0.00003298,-0.00006993,0.00013650,0.00004870,0.00140566,0.00070239,-0.
 00085099,0.00036582,0.00062983,-0.00032673,-0.00007131,0.00584750,0.00
 874226,-0.03838613,0.12881514,0.19597361,0.00036120,-0.00176149,-0.000
 19483,-0.00545734,0.00247632,-0.00352299,0.00030189,0.00589570,0.00197
 738,0.00890972,0.01163823,0.00769675,0.00047400,-0.00015581,0.00014988
 ,-0.00033317,-0.00042083,-0.00013217,0.00074650,-0.00007088,-0.0002567
 3,-0.08702797,-0.07672865,-0.04738974,-0.00200111,-0.02618105,-0.01273
 477,-0.00019730,0.00004324,-0.00065000,0.00003438,0.00002306,0.0001085
 8,-0.00000353,0.00003153,-0.00002884,0.00016755,-0.00023802,-0.0000450
 4,-0.00001917,-0.00007609,-0.00021648,0.00008493,-0.00008825,-0.000058
 51,-0.00021028,-0.00030129,0.00010954,0.00012694,-0.00019951,0.0000053
 5,0.08339302,-0.00021003,-0.00099064,-0.00039540,0.00369189,0.00104733
 ,-0.00389142,-0.00045730,-0.00319977,-0.00258310,-0.01202326,-0.008347
 83,-0.00673261,-0.00027442,0.00015398,-0.00066216,0.00047509,0.0002728
 0,0.00043995,-0.00035960,-0.00031209,-0.00004460,-0.07961039,-0.251634
 87,-0.11518585,0.00373969,0.00168526,0.00051957,-0.00013577,0.00009972
 ,-0.00021631,-0.00005013,0.00003256,-0.00003305,0.00002890,-0.00005923
 ,0.00003710,-0.00037033,0.00092089,0.00052721,0.00018607,-0.00005356,0
 .00070375,-0.00011318,0.00016173,0.00023905,0.00034673,0.00032159,-0.0
 0021645,0.00006716,0.00018813,-0.00008404,0.08597249,0.26014574,-0.000
 21898,0.00214099,0.00059663,-0.00324484,-0.00486225,0.00938003,-0.0010
 9832,-0.00097633,0.00191772,-0.00246685,-0.00000346,-0.00130800,0.0000
 6327,-0.00053762,0.00025137,0.00023985,0.00019447,-0.00026626,-0.00034
 840,-0.00013402,0.00054036,-0.04848432,-0.11456072,-0.09867017,0.00004
 785,-0.00746004,-0.00029161,0.00032397,0.00003019,0.00054779,-0.000022
 66,-0.00002977,-0.00011544,0.00000155,0.00012489,-0.00015051,0.0001250
 9,-0.00214740,-0.00124228,-0.00002205,0.00003723,-0.00009325,0.0001295
 6,-0.00011151,0.00003983,0.00035085,0.00021357,-0.00027203,-0.00007278
 ,0.00020069,-0.00001935,0.05352222,0.12576573,0.09312808,0.00000466,0.
 00019136,0.00014511,0.00456318,-0.00396963,-0.00098497,0.00143663,-0.0
 0244652,-0.00147818,-0.00285464,-0.00070812,-0.00419167,-0.00011151,0.
 00112328,0.00070878,-0.00031374,-0.00019097,0.00001125,0.00020944,0.00
 032128,-0.00018636,-0.01337093,0.02060151,0.00445301,-0.23314880,0.140
 08406,0.00789172,-0.00004540,-0.00001162,0.00010911,0.00013693,-0.0000
 2518,-0.00003709,-0.00003772,0.00006631,0.00004926,-0.00024416,0.00062
 669,0.00048128,0.00002710,-0.00002853,0.00000730,-0.00031999,0.0000771
 9,-0.00027918,-0.00004457,-0.00008609,0.00007590,-0.00013696,-0.000004
 55,0.00004287,0.00064973,-0.00090362,0.00117496,0.24360074,0.00032627,
 0.00024744,0.00049676,0.01927879,-0.00384019,0.00311832,0.00386723,-0.
 00375938,-0.00161591,-0.00224999,-0.00115930,-0.00650774,0.00001065,0.
 00134281,0.00063933,0.00011520,-0.00017616,0.00030063,0.00038581,-0.00
 038275,-0.00030979,-0.00936795,0.00863116,-0.00010317,0.14417696,-0.16
 300402,-0.01693087,-0.00027201,0.00000023,-0.00010786,-0.00048864,-0.0
 0003334,-0.00045693,-0.00001909,0.00006648,-0.00010133,-0.00095208,0.0
 0001206,0.00058457,0.00007614,-0.00000789,0.00016379,-0.00034255,0.000
 14399,-0.00030001,-0.00001053,-0.00002580,0.00009327,0.00004132,0.0000
 8278,0.00007218,0.00014132,-0.00043175,0.00211535,-0.15471683,0.162293
 65,0.00000804,0.00082454,0.00071463,0.00935778,-0.00285975,0.00095419,
 0.00145548,-0.00330762,0.00122890,-0.00494245,-0.00592041,0.00820275,0
 .00036387,-0.00186561,-0.00034183,0.00022058,0.00021605,-0.00062066,-0
 .00030436,0.00240759,0.00114132,-0.00860076,0.00793171,0.00416953,0.00
 949316,-0.01763403,-0.04035561,-0.00012043,0.00019913,0.00006008,-0.00
 031655,-0.00019509,-0.00030655,0.00010786,-0.00001539,-0.00024672,-0.0
 0016902,-0.00051451,0.00001365,-0.00000743,0.00006625,-0.00025778,0.00
 033879,0.00001340,0.00028811,0.00019135,0.00013483,-0.00016614,-0.0007
 4325,-0.00014311,0.00009022,0.00166042,0.00181264,-0.00397291,-0.00799
 310,0.01884939,0.02940483\\0.00001915,-0.00000931,-0.00001235,-0.00003
 964,0.00003120,0.00000239,0.00002134,-0.00001736,-0.00001105,0.0000401
 0,0.00000367,0.00000462,-0.00001160,-0.00000010,-0.00002052,0.00000376
 ,0.00000821,-0.00000219,-0.00002065,-0.00001176,0.00002508,-0.00001722
 ,0.00000529,0.00000659,0.00001661,-0.00001920,-0.00000200,0.00000392,-
 0.00000256,0.00000732,-0.00000158,-0.00000554,0.00000063,-0.00000501,-
 0.00000070,0.00000028,0.00000116,-0.00000263,-0.00000322,-0.00000674,0
 .00000229,0.00000298,0.00000461,0.00000334,0.00001123,-0.00000238,0.00
 000556,-0.00000509,0.00000715,0.00000893,-0.00000480,-0.00000634,0.000
 00280,0.00000080,-0.00000664,-0.00000211,-0.00000070\\\@


 The lyf so short, the craft so long to lerne.
                             -- Chaucer
 Job cpu time:       0 days  0 hours 45 minutes 32.1 seconds.
 File lengths (MBytes):  RWF=    152 Int=      0 D2E=      0 Chk=      8 Scr=      1
 Normal termination of Gaussian 09 at Tue Jan 28 03:36:44 2020.
