 Entering Gaussian System, Link 0=/home/puck/opt/gaussian_09/g09
 Input=dsC7O2H10nsd_2522.com
 Output=dsC7O2H10nsd_2522.log
 Initial command:
 /home/puck/opt/gaussian_09/l1.exe "/scratch/puck/g09_97ac76c0-9112-46b4-b85a-8c723197c435/Gau-53234.inp" -scrdir="/scratch/puck/g09_97ac76c0-9112-46b4-b85a-8c723197c435/"
 Entering Link 1 = /home/puck/opt/gaussian_09/l1.exe PID=     53255.
  
 Copyright (c) 1988,1990,1992,1993,1995,1998,2003,2009,2013,
            Gaussian, Inc.  All Rights Reserved.
  
 This is part of the Gaussian(R) 09 program.  It is based on
 the Gaussian(R) 03 system (copyright 2003, Gaussian, Inc.),
 the Gaussian(R) 98 system (copyright 1998, Gaussian, Inc.),
 the Gaussian(R) 94 system (copyright 1995, Gaussian, Inc.),
 the Gaussian 92(TM) system (copyright 1992, Gaussian, Inc.),
 the Gaussian 90(TM) system (copyright 1990, Gaussian, Inc.),
 the Gaussian 88(TM) system (copyright 1988, Gaussian, Inc.),
 the Gaussian 86(TM) system (copyright 1986, Carnegie Mellon
 University), and the Gaussian 82(TM) system (copyright 1983,
 Carnegie Mellon University). Gaussian is a federally registered
 trademark of Gaussian, Inc.
  
 This software contains proprietary and confidential information,
 including trade secrets, belonging to Gaussian, Inc.
  
 This software is provided under written license and may be
 used, copied, transmitted, or stored only in accord with that
 written license.
  
 The following legend is applicable only to US Government
 contracts under FAR:
  
                    RESTRICTED RIGHTS LEGEND
  
 Use, reproduction and disclosure by the US Government is
 subject to restrictions as set forth in subparagraphs (a)
 and (c) of the Commercial Computer Software - Restricted
 Rights clause in FAR 52.227-19.
  
 Gaussian, Inc.
 340 Quinnipiac St., Bldg. 40, Wallingford CT 06492
  
  
 ---------------------------------------------------------------
 Warning -- This program may not be used in any manner that
 competes with the business of Gaussian, Inc. or will provide
 assistance to any competitor of Gaussian, Inc.  The licensee
 of this program is prohibited from giving any competitor of
 Gaussian, Inc. access to this program.  By using this program,
 the user acknowledges that Gaussian, Inc. is engaged in the
 business of creating and licensing software in the field of
 computational chemistry and represents and warrants to the
 licensee that it is not a competitor of Gaussian, Inc. and that
 it will not use this program in any manner prohibited above.
 ---------------------------------------------------------------
  

 Cite this work as:
 Gaussian 09, Revision D.01,
 M. J. Frisch, G. W. Trucks, H. B. Schlegel, G. E. Scuseria, 
 M. A. Robb, J. R. Cheeseman, G. Scalmani, V. Barone, B. Mennucci, 
 G. A. Petersson, H. Nakatsuji, M. Caricato, X. Li, H. P. Hratchian, 
 A. F. Izmaylov, J. Bloino, G. Zheng, J. L. Sonnenberg, M. Hada, 
 M. Ehara, K. Toyota, R. Fukuda, J. Hasegawa, M. Ishida, T. Nakajima, 
 Y. Honda, O. Kitao, H. Nakai, T. Vreven, J. A. Montgomery, Jr., 
 J. E. Peralta, F. Ogliaro, M. Bearpark, J. J. Heyd, E. Brothers, 
 K. N. Kudin, V. N. Staroverov, T. Keith, R. Kobayashi, J. Normand, 
 K. Raghavachari, A. Rendell, J. C. Burant, S. S. Iyengar, J. Tomasi, 
 M. Cossi, N. Rega, J. M. Millam, M. Klene, J. E. Knox, J. B. Cross, 
 V. Bakken, C. Adamo, J. Jaramillo, R. Gomperts, R. E. Stratmann, 
 O. Yazyev, A. J. Austin, R. Cammi, C. Pomelli, J. W. Ochterski, 
 R. L. Martin, K. Morokuma, V. G. Zakrzewski, G. A. Voth, 
 P. Salvador, J. J. Dannenberg, S. Dapprich, A. D. Daniels, 
 O. Farkas, J. B. Foresman, J. V. Ortiz, J. Cioslowski, 
 and D. J. Fox, Gaussian, Inc., Wallingford CT, 2013.
 
 ******************************************
 Gaussian 09:  ES64L-G09RevD.01 24-Apr-2013
                27-Jan-2020 
 ******************************************
 -----------------------------
 # b3lyp 6-31G(2df,p) opt Freq
 -----------------------------
 1/14=-1,18=20,19=15,26=3,38=1/1,3;
 2/9=110,12=2,17=6,18=5,40=1/2;
 3/5=1,6=6,7=104,11=2,16=1,25=1,30=1,71=1,74=-5/1,2,3;
 4//1;
 5/5=2,38=5/2;
 6/7=2,8=2,9=2,10=2,28=1/1;
 7//1,2,3,16;
 1/14=-1,18=20,19=15,26=3/3(2);
 2/9=110/2;
 99//99;
 2/9=110/2;
 3/5=1,6=6,7=104,11=2,16=1,25=1,30=1,71=1,74=-5/1,2,3;
 4/5=5,16=3,69=1/1;
 5/5=2,38=5/2;
 7//1,2,3,16;
 1/14=-1,18=20,19=15,26=3/3(-5);
 2/9=110/2;
 6/7=2,8=2,9=2,10=2,19=2,28=1/1;
 99/9=1/99;
 -----
 titel
 -----
 Symbolic Z-matrix:
 Charge =  0 Multiplicity = 1
 C                     1.34962   0.80244   0.25002 
 C                    -0.0222    0.26976   0.00371 
 C                    -1.16857   0.96152  -0.06792 
 C                    -2.32585   0.06617  -0.26068 
 O                    -3.47917   0.38259  -0.44093 
 C                    -1.78627  -1.36864  -0.17629 
 C                    -0.24633  -1.22984  -0.20274 
 C                     0.35371  -1.7055   -1.53557 
 O                     0.40018  -1.88993   0.88742 
 H                     1.78975   0.30245   1.11884 
 H                     2.01311   0.5952   -0.5982 
 H                     1.33868   1.88082   0.42193 
 H                    -1.27366   2.03731   0.00623 
 H                    -2.09242  -1.79784   0.78296 
 H                    -2.20199  -1.98982  -0.97386 
 H                     0.17071  -2.77867  -1.66695 
 H                    -0.10162  -1.18423  -2.3828 
 H                     1.43404  -1.53968  -1.55899 
 H                     0.37634  -2.83737   0.71696 
 

 GradGradGradGradGradGradGradGradGradGradGradGradGradGradGradGradGradGrad
 Berny optimization.
 Initialization pass.
                           ----------------------------
                           !    Initial Parameters    !
                           ! (Angstroms and Degrees)  !
 --------------------------                            --------------------------
 ! Name  Definition              Value          Derivative Info.                !
 --------------------------------------------------------------------------------
 ! R1    R(1,2)                  1.4921         estimate D2E/DX2                !
 ! R2    R(1,10)                 1.0948         estimate D2E/DX2                !
 ! R3    R(1,11)                 1.0966         estimate D2E/DX2                !
 ! R4    R(1,12)                 1.0921         estimate D2E/DX2                !
 ! R5    R(2,3)                  1.3408         estimate D2E/DX2                !
 ! R6    R(2,7)                  1.5302         estimate D2E/DX2                !
 ! R7    R(3,4)                  1.4758         estimate D2E/DX2                !
 ! R8    R(3,13)                 1.0835         estimate D2E/DX2                !
 ! R9    R(4,5)                  1.2095         estimate D2E/DX2                !
 ! R10   R(4,6)                  1.5352         estimate D2E/DX2                !
 ! R11   R(6,7)                  1.5464         estimate D2E/DX2                !
 ! R12   R(6,14)                 1.0946         estimate D2E/DX2                !
 ! R13   R(6,15)                 1.0931         estimate D2E/DX2                !
 ! R14   R(7,8)                  1.5371         estimate D2E/DX2                !
 ! R15   R(7,9)                  1.429          estimate D2E/DX2                !
 ! R16   R(8,16)                 1.0966         estimate D2E/DX2                !
 ! R17   R(8,17)                 1.094          estimate D2E/DX2                !
 ! R18   R(8,18)                 1.0932         estimate D2E/DX2                !
 ! R19   R(9,19)                 0.9629         estimate D2E/DX2                !
 ! A1    A(2,1,10)             109.7295         estimate D2E/DX2                !
 ! A2    A(2,1,11)             111.168          estimate D2E/DX2                !
 ! A3    A(2,1,12)             111.6726         estimate D2E/DX2                !
 ! A4    A(10,1,11)            106.5164         estimate D2E/DX2                !
 ! A5    A(10,1,12)            109.2741         estimate D2E/DX2                !
 ! A6    A(11,1,12)            108.3265         estimate D2E/DX2                !
 ! A7    A(1,2,3)              127.6402         estimate D2E/DX2                !
 ! A8    A(1,2,7)              120.4497         estimate D2E/DX2                !
 ! A9    A(3,2,7)              111.9101         estimate D2E/DX2                !
 ! A10   A(2,3,4)              111.3715         estimate D2E/DX2                !
 ! A11   A(2,3,13)             126.266          estimate D2E/DX2                !
 ! A12   A(4,3,13)             122.3619         estimate D2E/DX2                !
 ! A13   A(3,4,5)              127.4817         estimate D2E/DX2                !
 ! A14   A(3,4,6)              106.5115         estimate D2E/DX2                !
 ! A15   A(5,4,6)              126.0048         estimate D2E/DX2                !
 ! A16   A(4,6,7)              105.3769         estimate D2E/DX2                !
 ! A17   A(4,6,14)             108.4413         estimate D2E/DX2                !
 ! A18   A(4,6,15)             110.937          estimate D2E/DX2                !
 ! A19   A(7,6,14)             109.1903         estimate D2E/DX2                !
 ! A20   A(7,6,15)             114.6621         estimate D2E/DX2                !
 ! A21   A(14,6,15)            108.0733         estimate D2E/DX2                !
 ! A22   A(2,7,6)              103.3856         estimate D2E/DX2                !
 ! A23   A(2,7,8)              111.2882         estimate D2E/DX2                !
 ! A24   A(2,7,9)              106.4684         estimate D2E/DX2                !
 ! A25   A(6,7,8)              112.0726         estimate D2E/DX2                !
 ! A26   A(6,7,9)              113.329          estimate D2E/DX2                !
 ! A27   A(8,7,9)              109.9947         estimate D2E/DX2                !
 ! A28   A(7,8,16)             109.9739         estimate D2E/DX2                !
 ! A29   A(7,8,17)             111.1975         estimate D2E/DX2                !
 ! A30   A(7,8,18)             110.9404         estimate D2E/DX2                !
 ! A31   A(16,8,17)            107.7027         estimate D2E/DX2                !
 ! A32   A(16,8,18)            108.1068         estimate D2E/DX2                !
 ! A33   A(17,8,18)            108.8099         estimate D2E/DX2                !
 ! A34   A(7,9,19)             107.9526         estimate D2E/DX2                !
 ! D1    D(10,1,2,3)           123.8853         estimate D2E/DX2                !
 ! D2    D(10,1,2,7)           -56.0918         estimate D2E/DX2                !
 ! D3    D(11,1,2,3)          -118.5502         estimate D2E/DX2                !
 ! D4    D(11,1,2,7)            61.4727         estimate D2E/DX2                !
 ! D5    D(12,1,2,3)             2.562          estimate D2E/DX2                !
 ! D6    D(12,1,2,7)          -177.4151         estimate D2E/DX2                !
 ! D7    D(1,2,3,4)           -177.2216         estimate D2E/DX2                !
 ! D8    D(1,2,3,13)             2.5049         estimate D2E/DX2                !
 ! D9    D(7,2,3,4)              2.7571         estimate D2E/DX2                !
 ! D10   D(7,2,3,13)          -177.5164         estimate D2E/DX2                !
 ! D11   D(1,2,7,6)            170.6254         estimate D2E/DX2                !
 ! D12   D(1,2,7,8)            -68.8914         estimate D2E/DX2                !
 ! D13   D(1,2,7,9)             50.9669         estimate D2E/DX2                !
 ! D14   D(3,2,7,6)             -9.3551         estimate D2E/DX2                !
 ! D15   D(3,2,7,8)            111.1281         estimate D2E/DX2                !
 ! D16   D(3,2,7,9)           -129.0136         estimate D2E/DX2                !
 ! D17   D(2,3,4,5)           -175.2891         estimate D2E/DX2                !
 ! D18   D(2,3,4,6)              5.1978         estimate D2E/DX2                !
 ! D19   D(13,3,4,5)             4.972          estimate D2E/DX2                !
 ! D20   D(13,3,4,6)          -174.5411         estimate D2E/DX2                !
 ! D21   D(3,4,6,7)            -10.6719         estimate D2E/DX2                !
 ! D22   D(3,4,6,14)           106.1405         estimate D2E/DX2                !
 ! D23   D(3,4,6,15)          -135.3225         estimate D2E/DX2                !
 ! D24   D(5,4,6,7)            169.8058         estimate D2E/DX2                !
 ! D25   D(5,4,6,14)           -73.3819         estimate D2E/DX2                !
 ! D26   D(5,4,6,15)            45.1552         estimate D2E/DX2                !
 ! D27   D(4,6,7,2)             11.7465         estimate D2E/DX2                !
 ! D28   D(4,6,7,8)           -108.2013         estimate D2E/DX2                !
 ! D29   D(4,6,7,9)            126.5795         estimate D2E/DX2                !
 ! D30   D(14,6,7,2)          -104.5552         estimate D2E/DX2                !
 ! D31   D(14,6,7,8)           135.497          estimate D2E/DX2                !
 ! D32   D(14,6,7,9)            10.2778         estimate D2E/DX2                !
 ! D33   D(15,6,7,2)           134.0278         estimate D2E/DX2                !
 ! D34   D(15,6,7,8)            14.0801         estimate D2E/DX2                !
 ! D35   D(15,6,7,9)          -111.1392         estimate D2E/DX2                !
 ! D36   D(2,7,8,16)          -179.3279         estimate D2E/DX2                !
 ! D37   D(2,7,8,17)           -60.1204         estimate D2E/DX2                !
 ! D38   D(2,7,8,18)            61.1243         estimate D2E/DX2                !
 ! D39   D(6,7,8,16)           -64.107          estimate D2E/DX2                !
 ! D40   D(6,7,8,17)            55.1006         estimate D2E/DX2                !
 ! D41   D(6,7,8,18)           176.3452         estimate D2E/DX2                !
 ! D42   D(9,7,8,16)            62.9269         estimate D2E/DX2                !
 ! D43   D(9,7,8,17)          -177.8656         estimate D2E/DX2                !
 ! D44   D(9,7,8,18)           -56.6209         estimate D2E/DX2                !
 ! D45   D(2,7,9,19)          -172.4232         estimate D2E/DX2                !
 ! D46   D(6,7,9,19)            74.5981         estimate D2E/DX2                !
 ! D47   D(8,7,9,19)           -51.7301         estimate D2E/DX2                !
 --------------------------------------------------------------------------------
 Trust Radius=3.00D-01 FncErr=1.00D-07 GrdErr=1.00D-06
 Number of steps in this run=    110 maximum allowed number of steps=    114.
 GradGradGradGradGradGradGradGradGradGradGradGradGradGradGradGradGradGrad

                          Input orientation:                          
 ---------------------------------------------------------------------
 Center     Atomic      Atomic             Coordinates (Angstroms)
 Number     Number       Type             X           Y           Z
 ---------------------------------------------------------------------
      1          6           0        1.349625    0.802438    0.250019
      2          6           0       -0.022198    0.269764    0.003711
      3          6           0       -1.168571    0.961516   -0.067920
      4          6           0       -2.325848    0.066168   -0.260680
      5          8           0       -3.479175    0.382587   -0.440934
      6          6           0       -1.786272   -1.368638   -0.176293
      7          6           0       -0.246325   -1.229837   -0.202736
      8          6           0        0.353709   -1.705502   -1.535570
      9          8           0        0.400179   -1.889931    0.887422
     10          1           0        1.789750    0.302447    1.118841
     11          1           0        2.013111    0.595197   -0.598202
     12          1           0        1.338679    1.880825    0.421928
     13          1           0       -1.273657    2.037313    0.006234
     14          1           0       -2.092425   -1.797841    0.782964
     15          1           0       -2.201994   -1.989820   -0.973858
     16          1           0        0.170710   -2.778675   -1.666949
     17          1           0       -0.101622   -1.184226   -2.382799
     18          1           0        1.434045   -1.539682   -1.558993
     19          1           0        0.376338   -2.837372    0.716956
 ---------------------------------------------------------------------
                    Distance matrix (angstroms):
                    1          2          3          4          5
     1  C    0.000000
     2  C    1.492081   0.000000
     3  C    2.543167   1.340830   0.000000
     4  C    3.783122   2.327694   1.475837   0.000000
     5  O    4.896019   3.487281   2.411056   1.209452   0.000000
     6  C    3.837859   2.414274   2.413072   1.535230   2.450049
     7  C    2.623392   1.530247   2.381332   2.451001   3.620493
     8  C    3.235728   2.532265   3.403575   3.456037   4.499927
     9  O    2.925164   2.371419   3.391815   3.546222   4.688098
    10  H    1.094785   2.127849   3.254910   4.347075   5.495534
    11  H    1.096650   2.147251   3.246304   4.384103   5.498649
    12  H    1.092058   2.149979   2.715029   4.145804   5.118688
    13  H    2.909631   2.165730   1.083458   2.250280   2.793276
    14  H    4.346630   3.027882   3.031759   2.149002   2.859243
    15  H    4.680660   3.288293   3.255622   2.179691   2.746545
    16  H    4.229536   3.481565   4.282476   4.037764   4.981802
    17  H    3.603426   2.795679   3.331854   3.318743   4.199238
    18  H    2.960604   2.799425   3.905496   4.289659   5.393042
    19  H    3.796516   3.212762   4.175443   4.085111   5.154981
                    6          7          8          9         10
     6  C    0.000000
     7  C    1.546416   0.000000
     8  C    2.557466   1.537123   0.000000
     9  O    2.486726   1.429033   2.430445   0.000000
    10  H    4.154255   2.870551   3.624910   2.605952   0.000000
    11  H    4.297670   2.931245   2.987556   3.314286   1.756084
    12  H    4.547768   3.546640   4.202821   3.913575   1.783375
    13  H    3.449143   3.431231   4.362814   4.359067   3.692170
    14  H    1.094587   2.168483   3.371602   2.496491   4.426659
    15  H    1.093070   2.235363   2.632105   3.200883   5.056472
    16  H    2.835497   2.171806   1.096563   2.714283   4.458165
    17  H    2.782215   2.185336   1.094008   3.382923   4.248408
    18  H    3.508782   2.181532   1.093238   2.678899   3.269673
    19  H    2.762600   1.953896   2.521015   0.962949   3.466657
                   11         12         13         14         15
    11  H    0.000000
    12  H    1.774362   0.000000
    13  H    3.639764   2.649828   0.000000
    14  H    4.948705   5.043352   3.997762   0.000000
    15  H    4.958885   5.428303   4.247374   1.770674   0.000000
    16  H    3.989947   5.238177   5.299007   3.476477   2.594686
    17  H    3.289868   4.397215   4.178451   3.789706   2.654366
    18  H    2.411669   3.953860   4.751471   4.241155   3.710227
    19  H    4.023829   4.824367   5.195206   2.679510   3.197655
                   16         17         18         19
    16  H    0.000000
    17  H    1.768862   0.000000
    18  H    1.772786   1.778561   0.000000
    19  H    2.393477   3.545394   2.825364   0.000000
 Stoichiometry    C7H10O2
 Framework group  C1[X(C7H10O2)]
 Deg. of freedom    51
 Full point group                 C1      NOp   1
 Largest Abelian subgroup         C1      NOp   1
 Largest concise Abelian subgroup C1      NOp   1
                         Standard orientation:                         
 ---------------------------------------------------------------------
 Center     Atomic      Atomic             Coordinates (Angstroms)
 Number     Number       Type             X           Y           Z
 ---------------------------------------------------------------------
      1          6           0       -1.619905    1.824064    0.009410
      2          6           0       -0.435901    0.916077    0.009660
      3          6           0        0.859331    1.259460    0.057487
      4          6           0        1.733627    0.073499   -0.027354
      5          8           0        2.938909    0.039438    0.067040
      6          6           0        0.813349   -1.130232   -0.274441
      7          6           0       -0.622462   -0.601583   -0.049989
      8          6           0       -1.239276   -1.139594    1.251099
      9          8           0       -1.498625   -0.859149   -1.149141
     10          1           0       -2.238954    1.623910   -0.871085
     11          1           0       -2.255940    1.645670    0.884782
     12          1           0       -1.322354    2.874803    0.009562
     13          1           0        1.253004    2.265296    0.142312
     14          1           0        0.923103   -1.441527   -1.318074
     15          1           0        1.093666   -1.973389    0.362199
     16          1           0       -1.352226   -2.228598    1.189771
     17          1           0       -0.601216   -0.919284    2.112026
     18          1           0       -2.227270   -0.704740    1.424132
     19          1           0       -1.726662   -1.794586   -1.134054
 ---------------------------------------------------------------------
 Rotational constants (GHZ):      2.4756814      1.3934098      1.0989954
 Standard basis: 6-31G(2df,p) (6D, 7F)
 There are   329 symmetry adapted cartesian basis functions of A   symmetry.
 There are   302 symmetry adapted basis functions of A   symmetry.
   302 basis functions,   466 primitive gaussians,   329 cartesian basis functions
    34 alpha electrons       34 beta electrons
       nuclear repulsion energy       456.9334875123 Hartrees.
 NAtoms=   19 NActive=   19 NUniq=   19 SFac= 1.00D+00 NAtFMM=   60 NAOKFM=F Big=F
 Integral buffers will be    131072 words long.
 Raffenetti 2 integral format.
 Two-electron integral symmetry is turned on.
 One-electron integrals computed using PRISM.
 NBasis=   302 RedAO= T EigKep=  3.61D-04  NBF=   302
 NBsUse=   302 1.00D-06 EigRej= -1.00D+00 NBFU=   302
 ExpMin= 1.61D-01 ExpMax= 5.48D+03 ExpMxC= 8.25D+02 IAcc=1 IRadAn=         1 AccDes= 0.00D+00
 Harris functional with IExCor=  402 and IRadAn=       1 diagonalized for initial guess.
 HarFok:  IExCor=  402 AccDes= 0.00D+00 IRadAn=         1 IDoV= 1 UseB2=F ITyADJ=14
 ICtDFT=  3500011 ScaDFX=  1.000000  1.000000  1.000000  1.000000
 FoFCou: FMM=F IPFlag=           0 FMFlag=      100000 FMFlg1=           0
         NFxFlg=           0 DoJE=T BraDBF=F KetDBF=T FulRan=T
         wScrn=  0.000000 ICntrl=     500 IOpCl=  0 I1Cent=   200000004 NGrid=           0
         NMat0=    1 NMatS0=      1 NMatT0=    0 NMatD0=    1 NMtDS0=    0 NMtDT0=    0
 Petite list used in FoFCou.
 Requested convergence on RMS density matrix=1.00D-08 within 128 cycles.
 Requested convergence on MAX density matrix=1.00D-06.
 Requested convergence on             energy=1.00D-06.
 No special actions if energy rises.
 Integral accuracy reduced to 1.0D-05 until final iterations.
 Initial convergence to 1.0D-05 achieved.  Increase integral accuracy.
 SCF Done:  E(RB3LYP) =  -423.231944891     A.U. after   14 cycles
            NFock= 14  Conv=0.60D-08     -V/T= 2.0074

 **********************************************************************

            Population analysis using the SCF density.

 **********************************************************************

 Orbital symmetries:
       Occupied  (A) (A) (A) (A) (A) (A) (A) (A) (A) (A) (A) (A)
                 (A) (A) (A) (A) (A) (A) (A) (A) (A) (A) (A) (A)
                 (A) (A) (A) (A) (A) (A) (A) (A) (A) (A)
       Virtual   (A) (A) (A) (A) (A) (A) (A) (A) (A) (A) (A) (A)
                 (A) (A) (A) (A) (A) (A) (A) (A) (A) (A) (A) (A)
                 (A) (A) (A) (A) (A) (A) (A) (A) (A) (A) (A) (A)
                 (A) (A) (A) (A) (A) (A) (A) (A) (A) (A) (A) (A)
                 (A) (A) (A) (A) (A) (A) (A) (A) (A) (A) (A) (A)
                 (A) (A) (A) (A) (A) (A) (A) (A) (A) (A) (A) (A)
                 (A) (A) (A) (A) (A) (A) (A) (A) (A) (A) (A) (A)
                 (A) (A) (A) (A) (A) (A) (A) (A) (A) (A) (A) (A)
                 (A) (A) (A) (A) (A) (A) (A) (A) (A) (A) (A) (A)
                 (A) (A) (A) (A) (A) (A) (A) (A) (A) (A) (A) (A)
                 (A) (A) (A) (A) (A) (A) (A) (A) (A) (A) (A) (A)
                 (A) (A) (A) (A) (A) (A) (A) (A) (A) (A) (A) (A)
                 (A) (A) (A) (A) (A) (A) (A) (A) (A) (A) (A) (A)
                 (A) (A) (A) (A) (A) (A) (A) (A) (A) (A) (A) (A)
                 (A) (A) (A) (A) (A) (A) (A) (A) (A) (A) (A) (A)
                 (A) (A) (A) (A) (A) (A) (A) (A) (A) (A) (A) (A)
                 (A) (A) (A) (A) (A) (A) (A) (A) (A) (A) (A) (A)
                 (A) (A) (A) (A) (A) (A) (A) (A) (A) (A) (A) (A)
                 (A) (A) (A) (A) (A) (A) (A) (A) (A) (A) (A) (A)
                 (A) (A) (A) (A) (A) (A) (A) (A) (A) (A) (A) (A)
                 (A) (A) (A) (A) (A) (A) (A) (A) (A) (A) (A) (A)
                 (A) (A) (A) (A) (A) (A) (A) (A) (A) (A) (A) (A)
                 (A) (A) (A) (A)
 The electronic state is 1-A.
 Alpha  occ. eigenvalues --  -19.14699 -19.11470 -10.25768 -10.25475 -10.21496
 Alpha  occ. eigenvalues --  -10.19314 -10.19164 -10.18572 -10.18398  -1.03185
 Alpha  occ. eigenvalues --   -1.02442  -0.85219  -0.76033  -0.74005  -0.68999
 Alpha  occ. eigenvalues --   -0.63590  -0.55446  -0.53273  -0.50355  -0.46926
 Alpha  occ. eigenvalues --   -0.44717  -0.44123  -0.43130  -0.42255  -0.41205
 Alpha  occ. eigenvalues --   -0.39510  -0.38893  -0.38003  -0.36749  -0.34816
 Alpha  occ. eigenvalues --   -0.32837  -0.28704  -0.26662  -0.23230
 Alpha virt. eigenvalues --   -0.04102   0.05852   0.06347   0.10052   0.12016
 Alpha virt. eigenvalues --    0.13054   0.14466   0.14748   0.15139   0.16537
 Alpha virt. eigenvalues --    0.18333   0.19538   0.19998   0.20940   0.21695
 Alpha virt. eigenvalues --    0.24124   0.27032   0.27883   0.30676   0.36976
 Alpha virt. eigenvalues --    0.41104   0.44327   0.44989   0.46533   0.47313
 Alpha virt. eigenvalues --    0.48443   0.50475   0.51313   0.53110   0.54564
 Alpha virt. eigenvalues --    0.55658   0.58571   0.59192   0.59930   0.61173
 Alpha virt. eigenvalues --    0.62186   0.64165   0.67253   0.67936   0.68656
 Alpha virt. eigenvalues --    0.69038   0.70859   0.71937   0.72724   0.73810
 Alpha virt. eigenvalues --    0.74859   0.76445   0.77720   0.79056   0.80608
 Alpha virt. eigenvalues --    0.81849   0.82823   0.84512   0.85310   0.86372
 Alpha virt. eigenvalues --    0.87570   0.91826   0.93174   0.94024   0.95877
 Alpha virt. eigenvalues --    0.97570   0.98342   1.00407   1.01072   1.02853
 Alpha virt. eigenvalues --    1.05353   1.09708   1.11509   1.16793   1.19330
 Alpha virt. eigenvalues --    1.20026   1.23080   1.26968   1.28313   1.29628
 Alpha virt. eigenvalues --    1.31620   1.33644   1.37717   1.38949   1.40571
 Alpha virt. eigenvalues --    1.41148   1.43092   1.45279   1.46474   1.48666
 Alpha virt. eigenvalues --    1.52519   1.53706   1.55740   1.56989   1.58818
 Alpha virt. eigenvalues --    1.59400   1.62667   1.63491   1.65333   1.67186
 Alpha virt. eigenvalues --    1.70417   1.72185   1.73555   1.79327   1.82633
 Alpha virt. eigenvalues --    1.85915   1.87871   1.90146   1.92386   1.93553
 Alpha virt. eigenvalues --    1.95218   1.96826   1.97595   2.03499   2.05476
 Alpha virt. eigenvalues --    2.09422   2.16209   2.18882   2.22051   2.23567
 Alpha virt. eigenvalues --    2.26078   2.28853   2.34939   2.36604   2.41428
 Alpha virt. eigenvalues --    2.43502   2.44696   2.46483   2.49689   2.54242
 Alpha virt. eigenvalues --    2.56027   2.62136   2.64062   2.68765   2.69722
 Alpha virt. eigenvalues --    2.73304   2.74932   2.80091   2.81033   2.85613
 Alpha virt. eigenvalues --    2.86502   2.86851   2.88739   2.90507   2.91246
 Alpha virt. eigenvalues --    2.93477   2.94768   2.96218   2.98155   3.00257
 Alpha virt. eigenvalues --    3.02425   3.03614   3.05858   3.07574   3.09729
 Alpha virt. eigenvalues --    3.15579   3.16223   3.20062   3.21324   3.23413
 Alpha virt. eigenvalues --    3.27332   3.28899   3.30366   3.32598   3.34805
 Alpha virt. eigenvalues --    3.37274   3.39394   3.42398   3.44232   3.49048
 Alpha virt. eigenvalues --    3.51188   3.52180   3.54758   3.64302   3.64950
 Alpha virt. eigenvalues --    3.66189   3.66558   3.69586   3.72146   3.75208
 Alpha virt. eigenvalues --    3.78927   3.81741   3.85896   3.87490   3.91195
 Alpha virt. eigenvalues --    3.92817   3.96280   4.01377   4.02853   4.08422
 Alpha virt. eigenvalues --    4.12237   4.16277   4.17592   4.20363   4.21090
 Alpha virt. eigenvalues --    4.23102   4.25161   4.27858   4.31777   4.33079
 Alpha virt. eigenvalues --    4.36138   4.39569   4.40476   4.43641   4.45265
 Alpha virt. eigenvalues --    4.46276   4.48822   4.51301   4.53048   4.56100
 Alpha virt. eigenvalues --    4.57679   4.60056   4.60847   4.61933   4.63984
 Alpha virt. eigenvalues --    4.65236   4.67196   4.70569   4.72800   4.74972
 Alpha virt. eigenvalues --    4.75348   4.78106   4.80031   4.80980   4.82779
 Alpha virt. eigenvalues --    4.83234   4.87403   4.88865   4.90067   4.93070
 Alpha virt. eigenvalues --    4.98157   5.01653   5.05330   5.06926   5.10817
 Alpha virt. eigenvalues --    5.11765   5.13840   5.18281   5.23718   5.29819
 Alpha virt. eigenvalues --    5.30595   5.37708   5.42161   5.45494   5.47285
 Alpha virt. eigenvalues --    5.48317   5.55708   5.58880   5.61564   5.63242
 Alpha virt. eigenvalues --    5.65011   5.72627   5.81212   5.88660   5.95610
 Alpha virt. eigenvalues --    5.99297   6.04092   6.09020   6.18177   6.32992
 Alpha virt. eigenvalues --    6.58511   6.68002   6.88411   7.30988  10.23509
 Alpha virt. eigenvalues --   11.13238  11.38279  11.71918  12.18375  12.30881
 Alpha virt. eigenvalues --   12.78302  13.22818  13.58378
          Condensed to atoms (all electrons):
               1          2          3          4          5          6
     1  C    5.145847   0.372401  -0.043256   0.003445  -0.000062   0.007122
     2  C    0.372401   4.601090   0.480306   0.020680   0.003853  -0.028211
     3  C   -0.043256   0.480306   5.387868   0.348816  -0.066738  -0.177192
     4  C    0.003445   0.020680   0.348816   4.216283   0.804801   0.293758
     5  O   -0.000062   0.003853  -0.066738   0.804801   7.663136  -0.069701
     6  C    0.007122  -0.028211  -0.177192   0.293758  -0.069701   5.517945
     7  C   -0.067201   0.362555   0.027965  -0.039301   0.002193   0.291686
     8  C   -0.005599  -0.041476   0.000880   0.002077   0.000053  -0.053903
     9  O   -0.000804  -0.030934  -0.000721   0.001071  -0.000014  -0.044172
    10  H    0.364897  -0.018888  -0.000060  -0.000017   0.000001   0.000075
    11  H    0.358813  -0.017522   0.000456  -0.000115   0.000001   0.000140
    12  H    0.365906  -0.016160  -0.005655  -0.000088   0.000000  -0.000132
    13  H   -0.007087  -0.035473   0.353726  -0.032103  -0.001190   0.007560
    14  H   -0.000128  -0.000240   0.002395  -0.001887  -0.000908   0.319347
    15  H   -0.000132   0.004160   0.004430  -0.008940  -0.000623   0.334389
    16  H   -0.000036   0.003705   0.000005   0.000006  -0.000002  -0.005983
    17  H    0.000120   0.000392   0.001982   0.000002  -0.000035  -0.001244
    18  H    0.002139  -0.008922  -0.000082   0.000002   0.000001   0.004860
    19  H   -0.000098   0.007769  -0.000121  -0.000105   0.000000  -0.000719
               7          8          9         10         11         12
     1  C   -0.067201  -0.005599  -0.000804   0.364897   0.358813   0.365906
     2  C    0.362555  -0.041476  -0.030934  -0.018888  -0.017522  -0.016160
     3  C    0.027965   0.000880  -0.000721  -0.000060   0.000456  -0.005655
     4  C   -0.039301   0.002077   0.001071  -0.000017  -0.000115  -0.000088
     5  O    0.002193   0.000053  -0.000014   0.000001   0.000001   0.000000
     6  C    0.291686  -0.053903  -0.044172   0.000075   0.000140  -0.000132
     7  C    4.564034   0.360364   0.345133  -0.001093  -0.001370   0.003305
     8  C    0.360364   5.159776  -0.047461   0.000409   0.001297  -0.000024
     9  O    0.345133  -0.047461   7.921384   0.008605  -0.000514   0.000223
    10  H   -0.001093   0.000409   0.008605   0.545104  -0.030326  -0.028129
    11  H   -0.001370   0.001297  -0.000514  -0.030326   0.580568  -0.030394
    12  H    0.003305  -0.000024   0.000223  -0.028129  -0.030394   0.577510
    13  H    0.005309  -0.000202  -0.000012  -0.000073  -0.000041   0.003564
    14  H   -0.009978   0.005290   0.002924   0.000024  -0.000007   0.000003
    15  H   -0.020363  -0.007310   0.002143  -0.000013   0.000007   0.000003
    16  H   -0.015718   0.357065  -0.001334  -0.000015  -0.000124   0.000003
    17  H   -0.012326   0.351853   0.003343   0.000008  -0.000120  -0.000011
    18  H   -0.015378   0.365079   0.000677   0.000373   0.003252  -0.000080
    19  H   -0.063612  -0.005259   0.312715  -0.000425  -0.000056   0.000009
              13         14         15         16         17         18
     1  C   -0.007087  -0.000128  -0.000132  -0.000036   0.000120   0.002139
     2  C   -0.035473  -0.000240   0.004160   0.003705   0.000392  -0.008922
     3  C    0.353726   0.002395   0.004430   0.000005   0.001982  -0.000082
     4  C   -0.032103  -0.001887  -0.008940   0.000006   0.000002   0.000002
     5  O   -0.001190  -0.000908  -0.000623  -0.000002  -0.000035   0.000001
     6  C    0.007560   0.319347   0.334389  -0.005983  -0.001244   0.004860
     7  C    0.005309  -0.009978  -0.020363  -0.015718  -0.012326  -0.015378
     8  C   -0.000202   0.005290  -0.007310   0.357065   0.351853   0.365079
     9  O   -0.000012   0.002924   0.002143  -0.001334   0.003343   0.000677
    10  H   -0.000073   0.000024  -0.000013  -0.000015   0.000008   0.000373
    11  H   -0.000041  -0.000007   0.000007  -0.000124  -0.000120   0.003252
    12  H    0.003564   0.000003   0.000003   0.000003  -0.000011  -0.000080
    13  H    0.596455  -0.000181  -0.000087   0.000006  -0.000017  -0.000011
    14  H   -0.000181   0.576792  -0.029198   0.000085  -0.000102  -0.000214
    15  H   -0.000087  -0.029198   0.600384   0.002925   0.000714   0.000017
    16  H    0.000006   0.000085   0.002925   0.599815  -0.027650  -0.032261
    17  H   -0.000017  -0.000102   0.000714  -0.027650   0.580658  -0.028231
    18  H   -0.000011  -0.000214   0.000017  -0.032261  -0.028231   0.582855
    19  H    0.000006   0.000177   0.000543   0.005324  -0.000149  -0.000239
              19
     1  C   -0.000098
     2  C    0.007769
     3  C   -0.000121
     4  C   -0.000105
     5  O    0.000000
     6  C   -0.000719
     7  C   -0.063612
     8  C   -0.005259
     9  O    0.312715
    10  H   -0.000425
    11  H   -0.000056
    12  H    0.000009
    13  H    0.000006
    14  H    0.000177
    15  H    0.000543
    16  H    0.005324
    17  H   -0.000149
    18  H   -0.000239
    19  H    0.463221
 Mulliken charges:
               1
     1  C   -0.496287
     2  C    0.340914
     3  C   -0.315003
     4  C    0.391615
     5  O   -0.334765
     6  C   -0.395626
     7  C    0.283794
     8  C   -0.442912
     9  O   -0.472255
    10  H    0.159543
    11  H    0.136054
    12  H    0.130147
    13  H    0.109851
    14  H    0.135806
    15  H    0.116950
    16  H    0.114182
    17  H    0.130812
    18  H    0.126162
    19  H    0.281018
 Sum of Mulliken charges =   0.00000
 Mulliken charges with hydrogens summed into heavy atoms:
               1
     1  C   -0.070543
     2  C    0.340914
     3  C   -0.205152
     4  C    0.391615
     5  O   -0.334765
     6  C   -0.142870
     7  C    0.283794
     8  C   -0.071756
     9  O   -0.191237
 Electronic spatial extent (au):  <R**2>=           1168.2935
 Charge=              0.0000 electrons
 Dipole moment (field-independent basis, Debye):
    X=             -3.6875    Y=             -0.7239    Z=              0.6791  Tot=              3.8187
 Quadrupole moment (field-independent basis, Debye-Ang):
   XX=            -64.4865   YY=            -45.9175   ZZ=            -53.8257
   XY=              1.2137   XZ=             -1.7562   YZ=              0.8494
 Traceless Quadrupole moment (field-independent basis, Debye-Ang):
   XX=             -9.7432   YY=              8.8257   ZZ=              0.9175
   XY=              1.2137   XZ=             -1.7562   YZ=              0.8494
 Octapole moment (field-independent basis, Debye-Ang**2):
  XXX=            -43.1281  YYY=             -7.8960  ZZZ=             -3.2940  XYY=             -4.9412
  XXY=             -3.1685  XXZ=             -1.8578  XZZ=              3.1322  YZZ=             -3.7462
  YYZ=             -5.5420  XYZ=             -1.9087
 Hexadecapole moment (field-independent basis, Debye-Ang**3):
 XXXX=           -922.5032 YYYY=           -445.3620 ZZZZ=           -200.3740 XXXY=             11.2072
 XXXZ=              2.1640 YYYX=             25.7523 YYYZ=             14.4931 ZZZX=              6.9060
 ZZZY=              7.5049 XXYY=           -196.3643 XXZZ=           -160.9225 YYZZ=           -111.3239
 XXYZ=              6.2388 YYXZ=             11.9872 ZZXY=              0.9932
 N-N= 4.569334875123D+02 E-N=-1.900781162561D+03  KE= 4.201047400581D+02
 Calling FoFJK, ICntrl=      2127 FMM=F ISym2X=0 I1Cent= 0 IOpClX= 0 NMat=1 NMatS=1 NMatT=0.
 ***** Axes restored to original set *****
 -------------------------------------------------------------------
 Center     Atomic                   Forces (Hartrees/Bohr)
 Number     Number              X              Y              Z
 -------------------------------------------------------------------
      1        6          -0.000033012   -0.000000249   -0.000009252
      2        6           0.000022661   -0.000034588    0.000018403
      3        6          -0.000010869    0.000006930    0.000006695
      4        6          -0.000024122    0.000029473   -0.000000062
      5        8           0.000015187   -0.000011269    0.000004871
      6        6           0.000023970   -0.000021202   -0.000007519
      7        6          -0.000028525    0.000028130   -0.000053818
      8        6          -0.000007830    0.000000355    0.000020865
      9        8           0.000022913   -0.000015544    0.000024194
     10        1           0.000005021   -0.000001694    0.000006033
     11        1           0.000009318    0.000001473    0.000006417
     12        1           0.000001778   -0.000000217    0.000012294
     13        1           0.000008851   -0.000000951    0.000010070
     14        1          -0.000001205   -0.000000975   -0.000003393
     15        1          -0.000003520    0.000002278   -0.000004677
     16        1           0.000001441    0.000007215   -0.000010472
     17        1           0.000001954    0.000009944   -0.000007755
     18        1           0.000001995    0.000007334   -0.000004180
     19        1          -0.000006008   -0.000006444   -0.000008713
 -------------------------------------------------------------------
 Cartesian Forces:  Max     0.000053818 RMS     0.000015580

 GradGradGradGradGradGradGradGradGradGradGradGradGradGradGradGradGradGrad
 Berny optimization.
 FormGI is forming the generalized inverse of G from B-inverse, IUseBI=4.
 Internal  Forces:  Max     0.000035911 RMS     0.000006800
 Search for a local minimum.
 Step number   1 out of a maximum of  110
 All quantities printed in internal units (Hartrees-Bohrs-Radians)
 Mixed Optimization -- En-DIIS/RFO-DIIS
 Second derivative matrix not updated -- first step.
 ITU=  0
     Eigenvalues ---    0.00275   0.00333   0.00615   0.00871   0.01154
     Eigenvalues ---    0.01256   0.01308   0.02082   0.03867   0.05148
     Eigenvalues ---    0.05361   0.05429   0.05601   0.05728   0.07176
     Eigenvalues ---    0.07465   0.08296   0.08388   0.09309   0.13613
     Eigenvalues ---    0.16000   0.16000   0.16000   0.16000   0.16000
     Eigenvalues ---    0.16000   0.16000   0.16000   0.19226   0.23306
     Eigenvalues ---    0.24998   0.25000   0.27047   0.28220   0.28775
     Eigenvalues ---    0.29047   0.33223   0.33795   0.34055   0.34065
     Eigenvalues ---    0.34265   0.34288   0.34354   0.34441   0.34460
     Eigenvalues ---    0.34576   0.35580   0.41129   0.54193   0.54844
     Eigenvalues ---    1.00214
 RFO step:  Lambda=-2.16939978D-08 EMin= 2.74883476D-03
 Linear search not attempted -- first point.
 Iteration  1 RMS(Cart)=  0.00009488 RMS(Int)=  0.00000001
 Iteration  2 RMS(Cart)=  0.00000001 RMS(Int)=  0.00000000
 Variable       Old X    -DE/DX   Delta X   Delta X   Delta X     New X
                                 (Linear)    (Quad)   (Total)
    R1        2.81962  -0.00001   0.00000  -0.00004  -0.00004   2.81958
    R2        2.06884   0.00000   0.00000   0.00001   0.00001   2.06885
    R3        2.07237   0.00000   0.00000   0.00001   0.00001   2.07238
    R4        2.06369   0.00000   0.00000   0.00001   0.00001   2.06370
    R5        2.53380   0.00001   0.00000   0.00001   0.00001   2.53382
    R6        2.89175  -0.00001   0.00000  -0.00005  -0.00005   2.89170
    R7        2.78893   0.00000   0.00000   0.00000   0.00000   2.78893
    R8        2.04744   0.00000   0.00000   0.00000   0.00000   2.04744
    R9        2.28553  -0.00002   0.00000  -0.00002  -0.00002   2.28552
   R10        2.90116   0.00002   0.00000   0.00006   0.00006   2.90122
   R11        2.92230  -0.00001   0.00000  -0.00004  -0.00004   2.92226
   R12        2.06847   0.00000   0.00000   0.00000   0.00000   2.06847
   R13        2.06560   0.00000   0.00000   0.00000   0.00000   2.06561
   R14        2.90474  -0.00002   0.00000  -0.00006  -0.00006   2.90468
   R15        2.70048   0.00004   0.00000   0.00009   0.00009   2.70057
   R16        2.07220   0.00000   0.00000  -0.00001  -0.00001   2.07220
   R17        2.06737   0.00000   0.00000   0.00001   0.00001   2.06739
   R18        2.06592   0.00000   0.00000   0.00001   0.00001   2.06593
   R19        1.81971   0.00000   0.00000   0.00001   0.00001   1.81972
    A1        1.91514   0.00001   0.00000   0.00003   0.00003   1.91517
    A2        1.94025   0.00001   0.00000   0.00007   0.00007   1.94032
    A3        1.94905   0.00000   0.00000   0.00000   0.00000   1.94905
    A4        1.85906  -0.00001   0.00000  -0.00004  -0.00004   1.85902
    A5        1.90719  -0.00001   0.00000  -0.00005  -0.00005   1.90714
    A6        1.89065   0.00000   0.00000  -0.00001  -0.00001   1.89064
    A7        2.22774  -0.00002   0.00000  -0.00010  -0.00010   2.22765
    A8        2.10224   0.00002   0.00000   0.00008   0.00008   2.10233
    A9        1.95320   0.00000   0.00000   0.00001   0.00001   1.95321
   A10        1.94380   0.00000   0.00000   0.00000   0.00000   1.94380
   A11        2.20376  -0.00001   0.00000  -0.00006  -0.00006   2.20370
   A12        2.13562   0.00001   0.00000   0.00006   0.00006   2.13568
   A13        2.22498   0.00001   0.00000   0.00004   0.00004   2.22502
   A14        1.85898  -0.00001   0.00000  -0.00002  -0.00002   1.85895
   A15        2.19920   0.00000   0.00000  -0.00002  -0.00002   2.19918
   A16        1.83917   0.00000   0.00000   0.00000   0.00000   1.83918
   A17        1.89266   0.00000   0.00000  -0.00005  -0.00005   1.89261
   A18        1.93622   0.00000   0.00000   0.00000   0.00000   1.93622
   A19        1.90573   0.00000   0.00000  -0.00001  -0.00001   1.90572
   A20        2.00123   0.00000   0.00000   0.00005   0.00005   2.00128
   A21        1.88623   0.00000   0.00000   0.00000   0.00000   1.88623
   A22        1.80442   0.00000   0.00000   0.00001   0.00001   1.80443
   A23        1.94235   0.00000   0.00000   0.00002   0.00002   1.94237
   A24        1.85822   0.00000   0.00000  -0.00003  -0.00003   1.85819
   A25        1.95604   0.00000   0.00000   0.00004   0.00004   1.95607
   A26        1.97796   0.00000   0.00000  -0.00002  -0.00002   1.97794
   A27        1.91977   0.00000   0.00000  -0.00002  -0.00002   1.91975
   A28        1.91941   0.00000   0.00000   0.00003   0.00003   1.91944
   A29        1.94076   0.00000   0.00000   0.00002   0.00002   1.94078
   A30        1.93627   0.00000   0.00000  -0.00002  -0.00002   1.93626
   A31        1.87977   0.00000   0.00000  -0.00001  -0.00001   1.87976
   A32        1.88682   0.00000   0.00000   0.00000   0.00000   1.88682
   A33        1.89909   0.00000   0.00000  -0.00003  -0.00003   1.89906
   A34        1.88413  -0.00001   0.00000  -0.00003  -0.00003   1.88410
    D1        2.16221   0.00000   0.00000  -0.00003  -0.00003   2.16217
    D2       -0.97899   0.00000   0.00000  -0.00020  -0.00020  -0.97919
    D3       -2.06909   0.00000   0.00000  -0.00002  -0.00002  -2.06911
    D4        1.07290   0.00000   0.00000  -0.00019  -0.00019   1.07271
    D5        0.04472   0.00000   0.00000   0.00002   0.00002   0.04473
    D6       -3.09648   0.00000   0.00000  -0.00015  -0.00015  -3.09663
    D7       -3.09310   0.00000   0.00000  -0.00015  -0.00015  -3.09325
    D8        0.04372   0.00000   0.00000  -0.00008  -0.00008   0.04363
    D9        0.04812   0.00000   0.00000   0.00001   0.00001   0.04813
   D10       -3.09825   0.00000   0.00000   0.00007   0.00007  -3.09817
   D11        2.97797   0.00000   0.00000   0.00014   0.00014   2.97812
   D12       -1.20238   0.00000   0.00000   0.00020   0.00020  -1.20218
   D13        0.88954   0.00000   0.00000   0.00018   0.00018   0.88972
   D14       -0.16328   0.00000   0.00000   0.00000   0.00000  -0.16328
   D15        1.93955   0.00000   0.00000   0.00006   0.00006   1.93961
   D16       -2.25171   0.00000   0.00000   0.00003   0.00003  -2.25168
   D17       -3.05937   0.00000   0.00000   0.00003   0.00003  -3.05934
   D18        0.09072   0.00000   0.00000  -0.00002  -0.00002   0.09070
   D19        0.08678   0.00000   0.00000  -0.00003  -0.00003   0.08675
   D20       -3.04632   0.00000   0.00000  -0.00008  -0.00008  -3.04639
   D21       -0.18626   0.00000   0.00000   0.00002   0.00002  -0.18624
   D22        1.85250   0.00000   0.00000  -0.00002  -0.00002   1.85248
   D23       -2.36182   0.00000   0.00000  -0.00005  -0.00005  -2.36187
   D24        2.96367   0.00000   0.00000  -0.00003  -0.00003   2.96364
   D25       -1.28076   0.00000   0.00000  -0.00006  -0.00006  -1.28082
   D26        0.78811   0.00000   0.00000  -0.00009  -0.00009   0.78801
   D27        0.20502   0.00000   0.00000  -0.00001  -0.00001   0.20501
   D28       -1.88847   0.00000   0.00000  -0.00006  -0.00006  -1.88853
   D29        2.20923   0.00000   0.00000  -0.00005  -0.00005   2.20918
   D30       -1.82483   0.00000   0.00000   0.00005   0.00005  -1.82478
   D31        2.36487   0.00000   0.00000   0.00000   0.00000   2.36487
   D32        0.17938   0.00000   0.00000   0.00001   0.00001   0.17939
   D33        2.33923   0.00000   0.00000   0.00003   0.00003   2.33925
   D34        0.24574   0.00000   0.00000  -0.00002  -0.00002   0.24572
   D35       -1.93974   0.00000   0.00000  -0.00001  -0.00001  -1.93975
   D36       -3.12986   0.00000   0.00000   0.00000   0.00000  -3.12986
   D37       -1.04930   0.00000   0.00000   0.00003   0.00003  -1.04927
   D38        1.06682   0.00000   0.00000  -0.00002  -0.00002   1.06680
   D39       -1.11888   0.00000   0.00000   0.00005   0.00005  -1.11883
   D40        0.96169   0.00000   0.00000   0.00008   0.00008   0.96176
   D41        3.07780   0.00000   0.00000   0.00003   0.00003   3.07784
   D42        1.09828   0.00000   0.00000   0.00003   0.00003   1.09831
   D43       -3.10434   0.00000   0.00000   0.00006   0.00006  -3.10428
   D44       -0.98822   0.00000   0.00000   0.00002   0.00002  -0.98820
   D45       -3.00935   0.00000   0.00000  -0.00023  -0.00023  -3.00958
   D46        1.30198   0.00000   0.00000  -0.00022  -0.00022   1.30177
   D47       -0.90286   0.00000   0.00000  -0.00023  -0.00023  -0.90309
         Item               Value     Threshold  Converged?
 Maximum Force            0.000036     0.000450     YES
 RMS     Force            0.000007     0.000300     YES
 Maximum Displacement     0.000434     0.001800     YES
 RMS     Displacement     0.000095     0.001200     YES
 Predicted change in Energy=-1.084711D-08
 Optimization completed.
    -- Stationary point found.
                           ----------------------------
                           !   Optimized Parameters   !
                           ! (Angstroms and Degrees)  !
 --------------------------                            --------------------------
 ! Name  Definition              Value          Derivative Info.                !
 --------------------------------------------------------------------------------
 ! R1    R(1,2)                  1.4921         -DE/DX =    0.0                 !
 ! R2    R(1,10)                 1.0948         -DE/DX =    0.0                 !
 ! R3    R(1,11)                 1.0966         -DE/DX =    0.0                 !
 ! R4    R(1,12)                 1.0921         -DE/DX =    0.0                 !
 ! R5    R(2,3)                  1.3408         -DE/DX =    0.0                 !
 ! R6    R(2,7)                  1.5302         -DE/DX =    0.0                 !
 ! R7    R(3,4)                  1.4758         -DE/DX =    0.0                 !
 ! R8    R(3,13)                 1.0835         -DE/DX =    0.0                 !
 ! R9    R(4,5)                  1.2095         -DE/DX =    0.0                 !
 ! R10   R(4,6)                  1.5352         -DE/DX =    0.0                 !
 ! R11   R(6,7)                  1.5464         -DE/DX =    0.0                 !
 ! R12   R(6,14)                 1.0946         -DE/DX =    0.0                 !
 ! R13   R(6,15)                 1.0931         -DE/DX =    0.0                 !
 ! R14   R(7,8)                  1.5371         -DE/DX =    0.0                 !
 ! R15   R(7,9)                  1.429          -DE/DX =    0.0                 !
 ! R16   R(8,16)                 1.0966         -DE/DX =    0.0                 !
 ! R17   R(8,17)                 1.094          -DE/DX =    0.0                 !
 ! R18   R(8,18)                 1.0932         -DE/DX =    0.0                 !
 ! R19   R(9,19)                 0.9629         -DE/DX =    0.0                 !
 ! A1    A(2,1,10)             109.7295         -DE/DX =    0.0                 !
 ! A2    A(2,1,11)             111.168          -DE/DX =    0.0                 !
 ! A3    A(2,1,12)             111.6726         -DE/DX =    0.0                 !
 ! A4    A(10,1,11)            106.5164         -DE/DX =    0.0                 !
 ! A5    A(10,1,12)            109.2741         -DE/DX =    0.0                 !
 ! A6    A(11,1,12)            108.3265         -DE/DX =    0.0                 !
 ! A7    A(1,2,3)              127.6402         -DE/DX =    0.0                 !
 ! A8    A(1,2,7)              120.4497         -DE/DX =    0.0                 !
 ! A9    A(3,2,7)              111.9101         -DE/DX =    0.0                 !
 ! A10   A(2,3,4)              111.3715         -DE/DX =    0.0                 !
 ! A11   A(2,3,13)             126.266          -DE/DX =    0.0                 !
 ! A12   A(4,3,13)             122.3619         -DE/DX =    0.0                 !
 ! A13   A(3,4,5)              127.4817         -DE/DX =    0.0                 !
 ! A14   A(3,4,6)              106.5115         -DE/DX =    0.0                 !
 ! A15   A(5,4,6)              126.0048         -DE/DX =    0.0                 !
 ! A16   A(4,6,7)              105.3769         -DE/DX =    0.0                 !
 ! A17   A(4,6,14)             108.4413         -DE/DX =    0.0                 !
 ! A18   A(4,6,15)             110.937          -DE/DX =    0.0                 !
 ! A19   A(7,6,14)             109.1903         -DE/DX =    0.0                 !
 ! A20   A(7,6,15)             114.6621         -DE/DX =    0.0                 !
 ! A21   A(14,6,15)            108.0733         -DE/DX =    0.0                 !
 ! A22   A(2,7,6)              103.3856         -DE/DX =    0.0                 !
 ! A23   A(2,7,8)              111.2882         -DE/DX =    0.0                 !
 ! A24   A(2,7,9)              106.4684         -DE/DX =    0.0                 !
 ! A25   A(6,7,8)              112.0726         -DE/DX =    0.0                 !
 ! A26   A(6,7,9)              113.329          -DE/DX =    0.0                 !
 ! A27   A(8,7,9)              109.9947         -DE/DX =    0.0                 !
 ! A28   A(7,8,16)             109.9739         -DE/DX =    0.0                 !
 ! A29   A(7,8,17)             111.1975         -DE/DX =    0.0                 !
 ! A30   A(7,8,18)             110.9404         -DE/DX =    0.0                 !
 ! A31   A(16,8,17)            107.7027         -DE/DX =    0.0                 !
 ! A32   A(16,8,18)            108.1068         -DE/DX =    0.0                 !
 ! A33   A(17,8,18)            108.8099         -DE/DX =    0.0                 !
 ! A34   A(7,9,19)             107.9526         -DE/DX =    0.0                 !
 ! D1    D(10,1,2,3)           123.8853         -DE/DX =    0.0                 !
 ! D2    D(10,1,2,7)           -56.0918         -DE/DX =    0.0                 !
 ! D3    D(11,1,2,3)          -118.5502         -DE/DX =    0.0                 !
 ! D4    D(11,1,2,7)            61.4727         -DE/DX =    0.0                 !
 ! D5    D(12,1,2,3)             2.562          -DE/DX =    0.0                 !
 ! D6    D(12,1,2,7)          -177.4151         -DE/DX =    0.0                 !
 ! D7    D(1,2,3,4)           -177.2216         -DE/DX =    0.0                 !
 ! D8    D(1,2,3,13)             2.5049         -DE/DX =    0.0                 !
 ! D9    D(7,2,3,4)              2.7571         -DE/DX =    0.0                 !
 ! D10   D(7,2,3,13)          -177.5164         -DE/DX =    0.0                 !
 ! D11   D(1,2,7,6)            170.6254         -DE/DX =    0.0                 !
 ! D12   D(1,2,7,8)            -68.8914         -DE/DX =    0.0                 !
 ! D13   D(1,2,7,9)             50.9669         -DE/DX =    0.0                 !
 ! D14   D(3,2,7,6)             -9.3551         -DE/DX =    0.0                 !
 ! D15   D(3,2,7,8)            111.1281         -DE/DX =    0.0                 !
 ! D16   D(3,2,7,9)           -129.0136         -DE/DX =    0.0                 !
 ! D17   D(2,3,4,5)           -175.2891         -DE/DX =    0.0                 !
 ! D18   D(2,3,4,6)              5.1978         -DE/DX =    0.0                 !
 ! D19   D(13,3,4,5)             4.972          -DE/DX =    0.0                 !
 ! D20   D(13,3,4,6)          -174.5411         -DE/DX =    0.0                 !
 ! D21   D(3,4,6,7)            -10.6719         -DE/DX =    0.0                 !
 ! D22   D(3,4,6,14)           106.1405         -DE/DX =    0.0                 !
 ! D23   D(3,4,6,15)          -135.3225         -DE/DX =    0.0                 !
 ! D24   D(5,4,6,7)            169.8058         -DE/DX =    0.0                 !
 ! D25   D(5,4,6,14)           -73.3819         -DE/DX =    0.0                 !
 ! D26   D(5,4,6,15)            45.1552         -DE/DX =    0.0                 !
 ! D27   D(4,6,7,2)             11.7465         -DE/DX =    0.0                 !
 ! D28   D(4,6,7,8)           -108.2013         -DE/DX =    0.0                 !
 ! D29   D(4,6,7,9)            126.5795         -DE/DX =    0.0                 !
 ! D30   D(14,6,7,2)          -104.5552         -DE/DX =    0.0                 !
 ! D31   D(14,6,7,8)           135.497          -DE/DX =    0.0                 !
 ! D32   D(14,6,7,9)            10.2778         -DE/DX =    0.0                 !
 ! D33   D(15,6,7,2)           134.0278         -DE/DX =    0.0                 !
 ! D34   D(15,6,7,8)            14.0801         -DE/DX =    0.0                 !
 ! D35   D(15,6,7,9)          -111.1392         -DE/DX =    0.0                 !
 ! D36   D(2,7,8,16)          -179.3279         -DE/DX =    0.0                 !
 ! D37   D(2,7,8,17)           -60.1204         -DE/DX =    0.0                 !
 ! D38   D(2,7,8,18)            61.1243         -DE/DX =    0.0                 !
 ! D39   D(6,7,8,16)           -64.107          -DE/DX =    0.0                 !
 ! D40   D(6,7,8,17)            55.1006         -DE/DX =    0.0                 !
 ! D41   D(6,7,8,18)           176.3452         -DE/DX =    0.0                 !
 ! D42   D(9,7,8,16)            62.9269         -DE/DX =    0.0                 !
 ! D43   D(9,7,8,17)          -177.8656         -DE/DX =    0.0                 !
 ! D44   D(9,7,8,18)           -56.6209         -DE/DX =    0.0                 !
 ! D45   D(2,7,9,19)          -172.4232         -DE/DX =    0.0                 !
 ! D46   D(6,7,9,19)            74.5981         -DE/DX =    0.0                 !
 ! D47   D(8,7,9,19)           -51.7301         -DE/DX =    0.0                 !
 --------------------------------------------------------------------------------
 GradGradGradGradGradGradGradGradGradGradGradGradGradGradGradGradGradGrad

                          Input orientation:                          
 ---------------------------------------------------------------------
 Center     Atomic      Atomic             Coordinates (Angstroms)
 Number     Number       Type             X           Y           Z
 ---------------------------------------------------------------------
      1          6           0        1.349625    0.802438    0.250019
      2          6           0       -0.022198    0.269764    0.003711
      3          6           0       -1.168571    0.961516   -0.067920
      4          6           0       -2.325848    0.066168   -0.260680
      5          8           0       -3.479175    0.382587   -0.440934
      6          6           0       -1.786272   -1.368638   -0.176293
      7          6           0       -0.246325   -1.229837   -0.202736
      8          6           0        0.353709   -1.705502   -1.535570
      9          8           0        0.400179   -1.889931    0.887422
     10          1           0        1.789750    0.302447    1.118841
     11          1           0        2.013111    0.595197   -0.598202
     12          1           0        1.338679    1.880825    0.421928
     13          1           0       -1.273657    2.037313    0.006234
     14          1           0       -2.092425   -1.797841    0.782964
     15          1           0       -2.201994   -1.989820   -0.973858
     16          1           0        0.170710   -2.778675   -1.666949
     17          1           0       -0.101622   -1.184226   -2.382799
     18          1           0        1.434045   -1.539682   -1.558993
     19          1           0        0.376338   -2.837372    0.716956
 ---------------------------------------------------------------------
                    Distance matrix (angstroms):
                    1          2          3          4          5
     1  C    0.000000
     2  C    1.492081   0.000000
     3  C    2.543167   1.340830   0.000000
     4  C    3.783122   2.327694   1.475837   0.000000
     5  O    4.896019   3.487281   2.411056   1.209452   0.000000
     6  C    3.837859   2.414274   2.413072   1.535230   2.450049
     7  C    2.623392   1.530247   2.381332   2.451001   3.620493
     8  C    3.235728   2.532265   3.403575   3.456037   4.499927
     9  O    2.925164   2.371419   3.391815   3.546222   4.688098
    10  H    1.094785   2.127849   3.254910   4.347075   5.495534
    11  H    1.096650   2.147251   3.246304   4.384103   5.498649
    12  H    1.092058   2.149979   2.715029   4.145804   5.118688
    13  H    2.909631   2.165730   1.083458   2.250280   2.793276
    14  H    4.346630   3.027882   3.031759   2.149002   2.859243
    15  H    4.680660   3.288293   3.255622   2.179691   2.746545
    16  H    4.229536   3.481565   4.282476   4.037764   4.981802
    17  H    3.603426   2.795679   3.331854   3.318743   4.199238
    18  H    2.960604   2.799425   3.905496   4.289659   5.393042
    19  H    3.796516   3.212762   4.175443   4.085111   5.154981
                    6          7          8          9         10
     6  C    0.000000
     7  C    1.546416   0.000000
     8  C    2.557466   1.537123   0.000000
     9  O    2.486726   1.429033   2.430445   0.000000
    10  H    4.154255   2.870551   3.624910   2.605952   0.000000
    11  H    4.297670   2.931245   2.987556   3.314286   1.756084
    12  H    4.547768   3.546640   4.202821   3.913575   1.783375
    13  H    3.449143   3.431231   4.362814   4.359067   3.692170
    14  H    1.094587   2.168483   3.371602   2.496491   4.426659
    15  H    1.093070   2.235363   2.632105   3.200883   5.056472
    16  H    2.835497   2.171806   1.096563   2.714283   4.458165
    17  H    2.782215   2.185336   1.094008   3.382923   4.248408
    18  H    3.508782   2.181532   1.093238   2.678899   3.269673
    19  H    2.762600   1.953896   2.521015   0.962949   3.466657
                   11         12         13         14         15
    11  H    0.000000
    12  H    1.774362   0.000000
    13  H    3.639764   2.649828   0.000000
    14  H    4.948705   5.043352   3.997762   0.000000
    15  H    4.958885   5.428303   4.247374   1.770674   0.000000
    16  H    3.989947   5.238177   5.299007   3.476477   2.594686
    17  H    3.289868   4.397215   4.178451   3.789706   2.654366
    18  H    2.411669   3.953860   4.751471   4.241155   3.710227
    19  H    4.023829   4.824367   5.195206   2.679510   3.197655
                   16         17         18         19
    16  H    0.000000
    17  H    1.768862   0.000000
    18  H    1.772786   1.778561   0.000000
    19  H    2.393477   3.545394   2.825364   0.000000
 Stoichiometry    C7H10O2
 Framework group  C1[X(C7H10O2)]
 Deg. of freedom    51
 Full point group                 C1      NOp   1
 Largest Abelian subgroup         C1      NOp   1
 Largest concise Abelian subgroup C1      NOp   1
                         Standard orientation:                         
 ---------------------------------------------------------------------
 Center     Atomic      Atomic             Coordinates (Angstroms)
 Number     Number       Type             X           Y           Z
 ---------------------------------------------------------------------
      1          6           0       -1.619905    1.824064    0.009410
      2          6           0       -0.435901    0.916077    0.009660
      3          6           0        0.859331    1.259460    0.057487
      4          6           0        1.733627    0.073499   -0.027354
      5          8           0        2.938909    0.039438    0.067040
      6          6           0        0.813349   -1.130232   -0.274441
      7          6           0       -0.622462   -0.601583   -0.049989
      8          6           0       -1.239276   -1.139594    1.251099
      9          8           0       -1.498625   -0.859149   -1.149141
     10          1           0       -2.238954    1.623910   -0.871085
     11          1           0       -2.255940    1.645670    0.884782
     12          1           0       -1.322354    2.874803    0.009562
     13          1           0        1.253004    2.265296    0.142312
     14          1           0        0.923103   -1.441527   -1.318074
     15          1           0        1.093666   -1.973389    0.362199
     16          1           0       -1.352226   -2.228598    1.189771
     17          1           0       -0.601216   -0.919284    2.112026
     18          1           0       -2.227270   -0.704740    1.424132
     19          1           0       -1.726662   -1.794586   -1.134054
 ---------------------------------------------------------------------
 Rotational constants (GHZ):      2.4756814      1.3934098      1.0989954
 1\1\GINC-ALCHEMY-AS\FOpt\RB3LYP\6-31G(2df,p)\C7H10O2\PUCK\27-Jan-2020\
 0\\# b3lyp 6-31G(2df,p) opt Freq\\titel\\0,1\C,1.3496247206,0.80243801
 14,0.2500185507\C,-0.0221975017,0.2697635515,0.0037106209\C,-1.1685709
 388,0.9615164441,-0.0679203858\C,-2.3258484622,0.066168495,-0.26067958
 51\O,-3.4791749866,0.3825869772,-0.4409342108\C,-1.7862719983,-1.36863
 75045,-0.1762933949\C,-0.2463251195,-1.2298370075,-0.2027356421\C,0.35
 37094373,-1.7055019314,-1.5355702252\O,0.4001792819,-1.8899312993,0.88
 74218303\H,1.789750489,0.3024474201,1.1188412348\H,2.0131111117,0.5951
 972484,-0.5982019205\H,1.3386791515,1.8808245529,0.4219281855\H,-1.273
 6565958,2.0373131647,0.0062337363\H,-2.0924248656,-1.7978413232,0.7829
 637725\H,-2.2019944207,-1.98981952,-0.9738584893\H,0.1707103462,-2.778
 6749774,-1.6669494941\H,-0.1016224557,-1.1842257478,-2.3827990235\H,1.
 4340446277,-1.5396823626,-1.5589929593\H,0.3763380591,-2.8373721016,0.
 7169556597\\Version=ES64L-G09RevD.01\State=1-A\HF=-423.2319449\RMSD=5.
 955e-09\RMSF=1.558e-05\Dipole=1.3468696,-0.629636,-0.2161113\Quadrupol
 e=-6.3257373,5.9050433,0.420694,3.0545413,-1.7725739,0.9551374\PG=C01 
 [X(C7H10O2)]\\@


 TWO ROADS DIVERGED IN A WOOD, AND I--
 I TOOK THE ONE LESS TRAVELED BY,
 AND THAT HAS MADE ALL THE DIFFERENCE.

                       -- ROBERT FROST
 Job cpu time:       0 days  0 hours  7 minutes 30.1 seconds.
 File lengths (MBytes):  RWF=     52 Int=      0 D2E=      0 Chk=      7 Scr=      1
 Normal termination of Gaussian 09 at Mon Jan 27 22:03:53 2020.
 Link1:  Proceeding to internal job step number  2.
 ----------------------------------------------------------------------
 #N Geom=AllCheck Guess=TCheck SCRF=Check GenChk RB3LYP/6-31G(2df,p) Fr
 eq
 ----------------------------------------------------------------------
 1/10=4,29=7,30=1,38=1,40=1/1,3;
 2/12=2,40=1/2;
 3/5=1,6=6,7=104,11=2,14=-4,16=1,25=1,30=1,70=2,71=2,74=-5,116=1,140=1/1,2,3;
 4/5=101/1;
 5/5=2,98=1/2;
 8/6=4,10=90,11=11/1;
 11/6=1,8=1,9=11,15=111,16=1/1,2,10;
 10/6=1/2;
 6/7=2,8=2,9=2,10=2,18=1,28=1/1;
 7/8=1,10=1,25=1/1,2,3,16;
 1/10=4,30=1/3;
 99//99;
 Structure from the checkpoint file:  "/scratch/puck/g09_97ac76c0-9112-46b4-b85a-8c723197c435/Gau-53255.chk"
 -----
 titel
 -----
 Charge =  0 Multiplicity = 1
 Redundant internal coordinates found in file.
 C,0,1.3496247206,0.8024380114,0.2500185507
 C,0,-0.0221975017,0.2697635515,0.0037106209
 C,0,-1.1685709388,0.9615164441,-0.0679203858
 C,0,-2.3258484622,0.066168495,-0.2606795851
 O,0,-3.4791749866,0.3825869772,-0.4409342108
 C,0,-1.7862719983,-1.3686375045,-0.1762933949
 C,0,-0.2463251195,-1.2298370075,-0.2027356421
 C,0,0.3537094373,-1.7055019314,-1.5355702252
 O,0,0.4001792819,-1.8899312993,0.8874218303
 H,0,1.789750489,0.3024474201,1.1188412348
 H,0,2.0131111117,0.5951972484,-0.5982019205
 H,0,1.3386791515,1.8808245529,0.4219281855
 H,0,-1.2736565958,2.0373131647,0.0062337363
 H,0,-2.0924248656,-1.7978413232,0.7829637725
 H,0,-2.2019944207,-1.98981952,-0.9738584893
 H,0,0.1707103462,-2.7786749774,-1.6669494941
 H,0,-0.1016224557,-1.1842257478,-2.3827990235
 H,0,1.4340446277,-1.5396823626,-1.5589929593
 H,0,0.3763380591,-2.8373721016,0.7169556597
 Recover connectivity data from disk.

 GradGradGradGradGradGradGradGradGradGradGradGradGradGradGradGradGradGrad
 Berny optimization.
 Initialization pass.
                           ----------------------------
                           !    Initial Parameters    !
                           ! (Angstroms and Degrees)  !
 --------------------------                            --------------------------
 ! Name  Definition              Value          Derivative Info.                !
 --------------------------------------------------------------------------------
 ! R1    R(1,2)                  1.4921         calculate D2E/DX2 analytically  !
 ! R2    R(1,10)                 1.0948         calculate D2E/DX2 analytically  !
 ! R3    R(1,11)                 1.0966         calculate D2E/DX2 analytically  !
 ! R4    R(1,12)                 1.0921         calculate D2E/DX2 analytically  !
 ! R5    R(2,3)                  1.3408         calculate D2E/DX2 analytically  !
 ! R6    R(2,7)                  1.5302         calculate D2E/DX2 analytically  !
 ! R7    R(3,4)                  1.4758         calculate D2E/DX2 analytically  !
 ! R8    R(3,13)                 1.0835         calculate D2E/DX2 analytically  !
 ! R9    R(4,5)                  1.2095         calculate D2E/DX2 analytically  !
 ! R10   R(4,6)                  1.5352         calculate D2E/DX2 analytically  !
 ! R11   R(6,7)                  1.5464         calculate D2E/DX2 analytically  !
 ! R12   R(6,14)                 1.0946         calculate D2E/DX2 analytically  !
 ! R13   R(6,15)                 1.0931         calculate D2E/DX2 analytically  !
 ! R14   R(7,8)                  1.5371         calculate D2E/DX2 analytically  !
 ! R15   R(7,9)                  1.429          calculate D2E/DX2 analytically  !
 ! R16   R(8,16)                 1.0966         calculate D2E/DX2 analytically  !
 ! R17   R(8,17)                 1.094          calculate D2E/DX2 analytically  !
 ! R18   R(8,18)                 1.0932         calculate D2E/DX2 analytically  !
 ! R19   R(9,19)                 0.9629         calculate D2E/DX2 analytically  !
 ! A1    A(2,1,10)             109.7295         calculate D2E/DX2 analytically  !
 ! A2    A(2,1,11)             111.168          calculate D2E/DX2 analytically  !
 ! A3    A(2,1,12)             111.6726         calculate D2E/DX2 analytically  !
 ! A4    A(10,1,11)            106.5164         calculate D2E/DX2 analytically  !
 ! A5    A(10,1,12)            109.2741         calculate D2E/DX2 analytically  !
 ! A6    A(11,1,12)            108.3265         calculate D2E/DX2 analytically  !
 ! A7    A(1,2,3)              127.6402         calculate D2E/DX2 analytically  !
 ! A8    A(1,2,7)              120.4497         calculate D2E/DX2 analytically  !
 ! A9    A(3,2,7)              111.9101         calculate D2E/DX2 analytically  !
 ! A10   A(2,3,4)              111.3715         calculate D2E/DX2 analytically  !
 ! A11   A(2,3,13)             126.266          calculate D2E/DX2 analytically  !
 ! A12   A(4,3,13)             122.3619         calculate D2E/DX2 analytically  !
 ! A13   A(3,4,5)              127.4817         calculate D2E/DX2 analytically  !
 ! A14   A(3,4,6)              106.5115         calculate D2E/DX2 analytically  !
 ! A15   A(5,4,6)              126.0048         calculate D2E/DX2 analytically  !
 ! A16   A(4,6,7)              105.3769         calculate D2E/DX2 analytically  !
 ! A17   A(4,6,14)             108.4413         calculate D2E/DX2 analytically  !
 ! A18   A(4,6,15)             110.937          calculate D2E/DX2 analytically  !
 ! A19   A(7,6,14)             109.1903         calculate D2E/DX2 analytically  !
 ! A20   A(7,6,15)             114.6621         calculate D2E/DX2 analytically  !
 ! A21   A(14,6,15)            108.0733         calculate D2E/DX2 analytically  !
 ! A22   A(2,7,6)              103.3856         calculate D2E/DX2 analytically  !
 ! A23   A(2,7,8)              111.2882         calculate D2E/DX2 analytically  !
 ! A24   A(2,7,9)              106.4684         calculate D2E/DX2 analytically  !
 ! A25   A(6,7,8)              112.0726         calculate D2E/DX2 analytically  !
 ! A26   A(6,7,9)              113.329          calculate D2E/DX2 analytically  !
 ! A27   A(8,7,9)              109.9947         calculate D2E/DX2 analytically  !
 ! A28   A(7,8,16)             109.9739         calculate D2E/DX2 analytically  !
 ! A29   A(7,8,17)             111.1975         calculate D2E/DX2 analytically  !
 ! A30   A(7,8,18)             110.9404         calculate D2E/DX2 analytically  !
 ! A31   A(16,8,17)            107.7027         calculate D2E/DX2 analytically  !
 ! A32   A(16,8,18)            108.1068         calculate D2E/DX2 analytically  !
 ! A33   A(17,8,18)            108.8099         calculate D2E/DX2 analytically  !
 ! A34   A(7,9,19)             107.9526         calculate D2E/DX2 analytically  !
 ! D1    D(10,1,2,3)           123.8853         calculate D2E/DX2 analytically  !
 ! D2    D(10,1,2,7)           -56.0918         calculate D2E/DX2 analytically  !
 ! D3    D(11,1,2,3)          -118.5502         calculate D2E/DX2 analytically  !
 ! D4    D(11,1,2,7)            61.4727         calculate D2E/DX2 analytically  !
 ! D5    D(12,1,2,3)             2.562          calculate D2E/DX2 analytically  !
 ! D6    D(12,1,2,7)          -177.4151         calculate D2E/DX2 analytically  !
 ! D7    D(1,2,3,4)           -177.2216         calculate D2E/DX2 analytically  !
 ! D8    D(1,2,3,13)             2.5049         calculate D2E/DX2 analytically  !
 ! D9    D(7,2,3,4)              2.7571         calculate D2E/DX2 analytically  !
 ! D10   D(7,2,3,13)          -177.5164         calculate D2E/DX2 analytically  !
 ! D11   D(1,2,7,6)            170.6254         calculate D2E/DX2 analytically  !
 ! D12   D(1,2,7,8)            -68.8914         calculate D2E/DX2 analytically  !
 ! D13   D(1,2,7,9)             50.9669         calculate D2E/DX2 analytically  !
 ! D14   D(3,2,7,6)             -9.3551         calculate D2E/DX2 analytically  !
 ! D15   D(3,2,7,8)            111.1281         calculate D2E/DX2 analytically  !
 ! D16   D(3,2,7,9)           -129.0136         calculate D2E/DX2 analytically  !
 ! D17   D(2,3,4,5)           -175.2891         calculate D2E/DX2 analytically  !
 ! D18   D(2,3,4,6)              5.1978         calculate D2E/DX2 analytically  !
 ! D19   D(13,3,4,5)             4.972          calculate D2E/DX2 analytically  !
 ! D20   D(13,3,4,6)          -174.5411         calculate D2E/DX2 analytically  !
 ! D21   D(3,4,6,7)            -10.6719         calculate D2E/DX2 analytically  !
 ! D22   D(3,4,6,14)           106.1405         calculate D2E/DX2 analytically  !
 ! D23   D(3,4,6,15)          -135.3225         calculate D2E/DX2 analytically  !
 ! D24   D(5,4,6,7)            169.8058         calculate D2E/DX2 analytically  !
 ! D25   D(5,4,6,14)           -73.3819         calculate D2E/DX2 analytically  !
 ! D26   D(5,4,6,15)            45.1552         calculate D2E/DX2 analytically  !
 ! D27   D(4,6,7,2)             11.7465         calculate D2E/DX2 analytically  !
 ! D28   D(4,6,7,8)           -108.2013         calculate D2E/DX2 analytically  !
 ! D29   D(4,6,7,9)            126.5795         calculate D2E/DX2 analytically  !
 ! D30   D(14,6,7,2)          -104.5552         calculate D2E/DX2 analytically  !
 ! D31   D(14,6,7,8)           135.497          calculate D2E/DX2 analytically  !
 ! D32   D(14,6,7,9)            10.2778         calculate D2E/DX2 analytically  !
 ! D33   D(15,6,7,2)           134.0278         calculate D2E/DX2 analytically  !
 ! D34   D(15,6,7,8)            14.0801         calculate D2E/DX2 analytically  !
 ! D35   D(15,6,7,9)          -111.1392         calculate D2E/DX2 analytically  !
 ! D36   D(2,7,8,16)          -179.3279         calculate D2E/DX2 analytically  !
 ! D37   D(2,7,8,17)           -60.1204         calculate D2E/DX2 analytically  !
 ! D38   D(2,7,8,18)            61.1243         calculate D2E/DX2 analytically  !
 ! D39   D(6,7,8,16)           -64.107          calculate D2E/DX2 analytically  !
 ! D40   D(6,7,8,17)            55.1006         calculate D2E/DX2 analytically  !
 ! D41   D(6,7,8,18)           176.3452         calculate D2E/DX2 analytically  !
 ! D42   D(9,7,8,16)            62.9269         calculate D2E/DX2 analytically  !
 ! D43   D(9,7,8,17)          -177.8656         calculate D2E/DX2 analytically  !
 ! D44   D(9,7,8,18)           -56.6209         calculate D2E/DX2 analytically  !
 ! D45   D(2,7,9,19)          -172.4232         calculate D2E/DX2 analytically  !
 ! D46   D(6,7,9,19)            74.5981         calculate D2E/DX2 analytically  !
 ! D47   D(8,7,9,19)           -51.7301         calculate D2E/DX2 analytically  !
 --------------------------------------------------------------------------------
 Trust Radius=3.00D-01 FncErr=1.00D-07 GrdErr=1.00D-07
 Number of steps in this run=      2 maximum allowed number of steps=      2.
 GradGradGradGradGradGradGradGradGradGradGradGradGradGradGradGradGradGrad

                          Input orientation:                          
 ---------------------------------------------------------------------
 Center     Atomic      Atomic             Coordinates (Angstroms)
 Number     Number       Type             X           Y           Z
 ---------------------------------------------------------------------
      1          6           0        1.349625    0.802438    0.250019
      2          6           0       -0.022198    0.269764    0.003711
      3          6           0       -1.168571    0.961516   -0.067920
      4          6           0       -2.325848    0.066168   -0.260680
      5          8           0       -3.479175    0.382587   -0.440934
      6          6           0       -1.786272   -1.368638   -0.176293
      7          6           0       -0.246325   -1.229837   -0.202736
      8          6           0        0.353709   -1.705502   -1.535570
      9          8           0        0.400179   -1.889931    0.887422
     10          1           0        1.789750    0.302447    1.118841
     11          1           0        2.013111    0.595197   -0.598202
     12          1           0        1.338679    1.880825    0.421928
     13          1           0       -1.273657    2.037313    0.006234
     14          1           0       -2.092425   -1.797841    0.782964
     15          1           0       -2.201994   -1.989820   -0.973858
     16          1           0        0.170710   -2.778675   -1.666949
     17          1           0       -0.101622   -1.184226   -2.382799
     18          1           0        1.434045   -1.539682   -1.558993
     19          1           0        0.376338   -2.837372    0.716956
 ---------------------------------------------------------------------
                    Distance matrix (angstroms):
                    1          2          3          4          5
     1  C    0.000000
     2  C    1.492081   0.000000
     3  C    2.543167   1.340830   0.000000
     4  C    3.783122   2.327694   1.475837   0.000000
     5  O    4.896019   3.487281   2.411056   1.209452   0.000000
     6  C    3.837859   2.414274   2.413072   1.535230   2.450049
     7  C    2.623392   1.530247   2.381332   2.451001   3.620493
     8  C    3.235728   2.532265   3.403575   3.456037   4.499927
     9  O    2.925164   2.371419   3.391815   3.546222   4.688098
    10  H    1.094785   2.127849   3.254910   4.347075   5.495534
    11  H    1.096650   2.147251   3.246304   4.384103   5.498649
    12  H    1.092058   2.149979   2.715029   4.145804   5.118688
    13  H    2.909631   2.165730   1.083458   2.250280   2.793276
    14  H    4.346630   3.027882   3.031759   2.149002   2.859243
    15  H    4.680660   3.288293   3.255622   2.179691   2.746545
    16  H    4.229536   3.481565   4.282476   4.037764   4.981802
    17  H    3.603426   2.795679   3.331854   3.318743   4.199238
    18  H    2.960604   2.799425   3.905496   4.289659   5.393042
    19  H    3.796516   3.212762   4.175443   4.085111   5.154981
                    6          7          8          9         10
     6  C    0.000000
     7  C    1.546416   0.000000
     8  C    2.557466   1.537123   0.000000
     9  O    2.486726   1.429033   2.430445   0.000000
    10  H    4.154255   2.870551   3.624910   2.605952   0.000000
    11  H    4.297670   2.931245   2.987556   3.314286   1.756084
    12  H    4.547768   3.546640   4.202821   3.913575   1.783375
    13  H    3.449143   3.431231   4.362814   4.359067   3.692170
    14  H    1.094587   2.168483   3.371602   2.496491   4.426659
    15  H    1.093070   2.235363   2.632105   3.200883   5.056472
    16  H    2.835497   2.171806   1.096563   2.714283   4.458165
    17  H    2.782215   2.185336   1.094008   3.382923   4.248408
    18  H    3.508782   2.181532   1.093238   2.678899   3.269673
    19  H    2.762600   1.953896   2.521015   0.962949   3.466657
                   11         12         13         14         15
    11  H    0.000000
    12  H    1.774362   0.000000
[...]
 94989805,0.00590243,-0.00695117,-0.00176417,-0.00241302,0.02001235,0.0
 0077905,-0.05950565,-0.17013487,-0.01151025,-0.12209350,0.48620650,-0.
 00150279,-0.00233901,0.01484083,-0.00875779,0.00268551,0.00100109,-0.0
 0707499,-0.01034324,-0.07812812,0.11362152,-0.01377048,0.23816994,-0.0
 0312436,0.00248486,0.00084749,0.00839856,-0.01466598,-0.00138429,-0.07
 316389,0.00349697,-0.01326065,-0.68310937,0.16471552,-0.09592851,0.775
 07695,-0.00086570,0.00207976,0.00065200,-0.00468467,-0.00359057,-0.000
 70073,-0.01587369,0.02725716,-0.00279497,0.15932496,-0.14880290,0.0234
 9163,-0.18808339,0.13070041,0.00017863,0.00088827,-0.00372325,0.000777
 35,-0.00266527,0.00299221,-0.01442281,0.00036563,0.02001143,-0.0959443
 5,0.02389343,-0.08432888,0.11660001,-0.02870099,0.04596585,0.00092860,
 -0.00039711,0.00096863,-0.01622793,-0.01922302,-0.00103609,0.00131864,
 -0.01756096,-0.00198424,-0.07470866,0.01037926,0.00236081,-0.02518837,
 0.04617879,-0.00857828,0.44437217,0.00102869,-0.00386918,-0.00066167,-
 0.02997920,-0.01225977,0.00114471,-0.00123913,-0.03493535,-0.00030664,
 -0.00533779,-0.14655315,-0.00202814,0.02959083,-0.00591805,0.00453837,
 0.07907178,0.48692551,0.00010740,-0.00123575,0.00038533,-0.00699787,-0
 .00424088,0.00047352,-0.00109289,-0.00539798,0.01666037,0.00017220,0.0
 0000537,-0.08037730,-0.00696991,0.00630890,0.01455982,0.01605939,0.021
 21035,0.57130040,-0.00071928,-0.02809715,-0.00538289,-0.08654269,-0.02
 072930,-0.00183989,0.00149048,0.02331845,0.00262902,-0.02489449,0.0277
 1487,0.00031755,0.00497894,-0.00558599,0.00094633,-0.14709159,-0.01977
 476,0.01108587,0.47720739,-0.00635724,-0.00902559,-0.00343403,-0.01832
 964,-0.15315238,-0.02315209,0.01095818,-0.02999325,-0.00139571,0.02816
 416,0.01329518,-0.00286959,0.00275369,-0.01145375,0.00198774,-0.011356
 18,-0.08370320,-0.00180447,-0.02524263,0.50153733,-0.00116732,-0.00416
 063,0.00122981,-0.00039876,-0.01174434,-0.07066971,0.00182965,-0.00213
 092,0.00635309,-0.00410569,0.00273807,-0.01268244,0.00114816,-0.000454
 82,0.00518482,0.00712795,-0.00359788,-0.07723260,-0.00324082,0.0089720
 6,0.44159039,0.00046858,-0.00009763,-0.00027938,0.00369099,0.00296216,
 -0.00397709,0.00042564,-0.00100176,0.00015366,-0.00243634,-0.00348938,
 0.00147644,-0.00037828,0.00162353,-0.00100747,-0.01809884,0.00985822,0
 .02794795,-0.09408871,0.01114243,0.03708130,0.56413187,-0.00047561,-0.
 00010509,0.00082135,0.01391854,-0.01387750,-0.02911377,-0.00002807,-0.
 00258177,-0.00084399,-0.00255077,-0.00450198,-0.00204337,0.00055444,0.
 00155218,0.00017341,-0.00272621,0.00350182,0.00422625,0.01411622,-0.08
 684944,-0.03902128,0.01140020,0.55269240,-0.00025595,0.00061571,0.0005
 9919,0.00354507,-0.01359197,-0.00613623,-0.00253961,0.00122196,-0.0008
 2080,0.00135033,0.00080510,0.00123711,-0.00117485,0.00023248,-0.000774
 11,0.00688960,-0.00281190,-0.00147763,0.03411502,-0.02052933,-0.132753
 63,0.04526315,-0.03677811,0.48302298,-0.00031333,-0.00067902,-0.000080
 48,0.00054908,0.00702642,-0.00127843,0.00274272,0.00056646,-0.00005727
 ,-0.00519743,-0.01016299,-0.00266252,-0.00218701,0.00539303,0.00022110
 ,-0.02095392,0.02283901,-0.03042486,-0.09191648,0.00865324,-0.05239809
 ,0.00454567,-0.00091350,0.00255147,0.11715171,-0.00028419,0.00057286,-
 0.00080297,0.02196203,-0.03020735,0.03446380,-0.00171646,-0.00391057,-
 0.00096306,-0.00152087,-0.00345236,0.00139344,0.00122314,0.00068264,-0
 .00010950,0.00370474,0.00407950,0.00344829,0.03068110,-0.11014532,0.06
 040543,0.00006834,0.00194201,0.00001815,-0.03089367,0.62904576,-0.0003
 3843,-0.00051867,0.00006404,-0.00205617,0.00858760,-0.00045280,0.00109
 715,-0.00018541,-0.00001620,-0.00118571,-0.00431371,0.00041178,-0.0013
 7435,0.00229374,-0.00048972,-0.01061543,0.00843852,-0.00660053,-0.0474
 2437,0.01047796,-0.14776166,-0.02215363,0.02629793,-0.04623924,0.10394
 774,0.02328132,0.25360425,-0.08300530,0.04778947,-0.08580801,-0.017552
 63,0.01518259,-0.02657642,-0.00267621,-0.00398200,0.00066770,-0.000029
 86,0.00163453,0.00283387,-0.00056630,-0.00054146,-0.00081144,0.0001696
 4,-0.00028258,0.00013324,-0.00034266,0.00131040,-0.00080742,0.00015328
 ,0.00005111,0.00018925,0.00045406,-0.00014320,0.00071352,0.09571454,0.
 04592025,-0.10246363,0.09611935,-0.00061849,0.00700651,-0.01066149,-0.
 00263913,-0.00082892,0.00047423,0.00087286,0.00145282,0.00102086,-0.00
 051570,-0.00031307,-0.00031757,0.00030970,-0.00007422,0.00040727,-0.00
 035982,0.00047764,-0.00070276,0.00007650,-0.00020790,0.00015102,-0.000
 35133,-0.00165116,0.00016198,-0.05200127,0.10649786,-0.08466492,0.0960
 8153,-0.21089618,-0.00348269,0.00114282,-0.00336807,0.00045851,-0.0009
 9589,-0.00035944,0.00016751,0.00068220,0.00002776,-0.00005937,-0.00023
 306,-0.00001179,0.00007317,-0.00032352,0.00018124,-0.00106096,0.001032
 99,-0.00056060,-0.00007083,-0.00022108,0.00005043,0.00102233,0.0006948
 9,0.00033234,0.09341003,-0.10645910,0.22989463,-0.13452586,0.02837722,
 0.12272145,-0.02333542,0.00721948,0.02426938,-0.00188448,-0.00387590,-
 0.00185163,0.00058141,0.00219126,-0.00274529,-0.00092105,-0.00071325,0
 .00060131,-0.00008105,-0.00009702,-0.00004204,0.00024990,0.00106456,0.
 00014063,-0.00030918,0.00005260,-0.00009088,0.00025101,-0.00004896,-0.
 00016918,0.00804631,-0.00262268,-0.00989833,0.15140576,0.02617384,-0.0
 5557954,-0.04005894,-0.00357441,0.00232265,0.01134980,-0.00168511,-0.0
 0029286,-0.00067547,0.00078932,0.00134768,-0.00055687,-0.00049766,-0.0
 0031135,0.00020526,0.00003819,0.00005745,-0.00024557,0.00023071,0.0003
 4470,-0.00014390,-0.00080028,-0.00047254,-0.00020528,0.00035392,-0.000
 05273,-0.00012723,-0.00910557,0.00237889,0.01184285,-0.03110946,0.0558
 1043,0.12080799,-0.04041509,-0.19888227,-0.00353572,0.00234853,0.00722
 374,-0.00142653,0.00008487,-0.00091791,0.00011661,0.00014763,-0.000890
 95,-0.00022460,-0.00001300,0.00022766,-0.00005523,0.00028053,0.0000585
 0,0.00102720,-0.00025148,-0.00003953,0.00015766,-0.00061432,-0.0002234
 0,-0.00036807,0.00021187,0.00009085,0.01601503,-0.00574298,-0.02114131
 ,-0.13319430,0.04431430,0.21784602,-0.04716357,0.00843546,0.00092059,-
 0.00002579,-0.03442308,-0.00547001,0.00215845,-0.00024565,0.00033509,0
 .00014380,-0.00069410,0.00009287,0.00009405,0.00030254,-0.00000885,-0.
 00017710,-0.00113225,-0.00030389,-0.00532328,0.00061425,-0.00087375,-0
 .00042944,0.00018507,0.00039663,0.00062034,0.00048510,-0.00000527,-0.0
 0101354,0.01179500,0.00377321,-0.00055168,0.01892133,0.00141050,0.0520
 8319,0.00509898,-0.30962371,-0.04146519,0.00031551,-0.01156026,-0.0015
 9075,0.00132780,0.00141751,0.00051471,-0.00022743,-0.00014847,0.000098
 35,-0.00007124,0.00012094,-0.00002749,0.00020496,-0.00026262,-0.000138
 80,-0.00105883,0.00120365,0.00016305,0.00001073,0.00010725,0.00017867,
 -0.00031602,-0.00001596,-0.00021279,0.00014984,-0.01243065,-0.00331818
 ,0.00024609,-0.00472017,-0.00009719,-0.00462358,0.33540269,0.00024057,
 -0.04147489,-0.05351634,0.00038623,-0.00593796,-0.00215142,0.00050412,
 0.00021768,-0.00062037,0.00006663,-0.00000689,-0.00020625,0.00000609,0
 .00003037,0.00003556,0.00002665,-0.00037253,0.00016970,-0.00147208,0.0
 0052255,0.00063301,0.00023370,0.00015316,0.00021542,0.00052950,0.00009
 167,0.00040184,0.00034848,0.02528037,0.00568199,-0.00018905,-0.0250118
 5,-0.00367576,-0.00007748,0.04616045,0.05260398,0.00197938,0.00061873,
 0.00111459,0.00247906,0.02803457,0.00250918,-0.05819054,0.02483013,-0.
 00068608,0.00938105,-0.02285330,-0.00066751,0.00084876,0.00394044,0.00
 065285,-0.00320304,-0.00346432,-0.00119014,-0.00504331,-0.00006674,-0.
 00148237,0.00038027,0.00026242,-0.00010578,0.00023438,0.00162698,0.000
 01645,0.00019898,-0.00015938,-0.00003556,-0.00003784,-0.00012147,-0.00
 006707,-0.00027289,-0.00073563,-0.00018249,0.05078226,-0.00062304,0.00
 057823,0.00040074,-0.00458100,-0.00814420,-0.00154513,0.02817661,-0.33
 921859,-0.02136375,0.00906710,-0.01072323,0.00042217,-0.00138771,0.002
 35292,0.00001540,-0.00108998,-0.00132937,-0.00082868,0.00004689,-0.000
 03092,-0.00074310,-0.00006877,-0.00041119,0.00010250,0.00041574,-0.000
 26815,0.00022389,0.00001918,0.00005629,0.00001383,-0.00009146,0.000065
 41,0.00000190,0.00066033,0.00040164,0.00014349,-0.03087726,0.35751733,
 0.00089235,0.00096047,-0.00516024,0.00027000,0.00093719,0.00291067,-0.
 00151305,-0.02156983,-0.03989250,0.00254140,-0.00379787,0.00111511,-0.
 00011648,0.00106094,-0.00147652,-0.00138765,-0.00038612,0.00359004,-0.
 00155962,0.00066764,0.01108316,0.00056613,0.00259611,-0.00025523,0.000
 30467,-0.00276739,-0.00052270,-0.00076923,-0.00003798,0.00014914,0.000
 79649,-0.00016103,0.00026482,-0.00001718,-0.00016762,0.00014039,0.0000
 3650,0.02317683,0.02729251,0.00026454,-0.00056379,-0.00104448,-0.00221
 733,0.00140825,0.00013895,0.00025196,0.00071005,0.00142528,0.00263864,
 0.00340811,-0.01307030,-0.00059511,0.00045001,0.00230901,-0.05957556,-
 0.02825069,0.06086452,-0.01154165,-0.01391949,0.02867959,-0.00421847,-
 0.00108067,-0.00112773,0.00511783,0.00031674,0.00023045,-0.00019460,-0
 .00014475,-0.00002742,0.00022889,0.00015190,0.00007902,-0.00023665,-0.
 00008272,-0.00012592,0.00015989,0.00001632,0.00036487,0.06805283,-0.00
 014591,-0.00015122,0.00016620,0.00015778,-0.00067965,0.00042639,0.0002
 9201,-0.00264099,-0.00319553,-0.00851121,-0.01271911,0.02842402,0.0004
 0029,0.00124149,-0.00329861,-0.03166071,-0.08180547,0.09631656,0.00149
 857,-0.00081954,0.00097495,0.00085123,0.00011969,-0.00024388,0.0006666
 1,0.00031291,-0.00049554,-0.00001170,-0.00005983,-0.00001049,-0.000073
 19,-0.00000843,-0.00002689,-0.00005628,0.00001952,-0.00002380,-0.00043
 354,-0.00036474,-0.00099776,0.03130368,0.08919269,0.00002598,0.0000231
 3,-0.00017079,-0.00010278,-0.00070093,0.00012114,-0.00080254,0.0000771
 1,-0.00026509,-0.00005347,0.00093988,-0.00075961,-0.00004633,0.0001168
 1,0.00090875,0.06563110,0.09073484,-0.24923879,-0.00101797,-0.00016943
 ,-0.00201973,0.00111070,0.00044815,0.00030828,-0.00193600,-0.00070499,
 0.00142870,-0.00003106,0.00001845,-0.00001752,-0.00002693,-0.00002174,
 -0.00000454,-0.00000467,-0.00001266,0.00000440,0.00004287,0.00003209,-
 0.00018554,-0.06974057,-0.10043441,0.26929301,0.00047367,-0.00156084,0
 .00050591,-0.00493668,0.00008568,0.00014634,0.00031688,0.00131932,-0.0
 0144829,0.00421717,0.00384997,0.01114015,0.00003111,-0.00058159,-0.001
 44508,-0.08481150,-0.05393048,-0.07170560,-0.00514058,-0.01762206,-0.0
 2083711,0.00134490,-0.00046431,-0.00131498,-0.00361403,0.00128863,-0.0
 0095964,0.00018907,0.00024594,0.00002397,-0.00007481,0.00000544,-0.000
 00063,-0.00044556,-0.00017620,-0.00006101,0.00047278,0.00016091,-0.000
 21551,0.00331148,0.00511097,0.00636763,0.08848489,-0.00002641,-0.00003
 451,-0.00020663,0.00012257,-0.00102875,-0.00049622,0.00030299,-0.00449
 845,0.00185415,-0.01320804,-0.01646671,-0.02391914,0.00023501,0.003618
 42,0.00300650,-0.05489214,-0.12753729,-0.11468386,0.00070440,-0.000913
 93,0.00117469,0.00045890,0.00079854,-0.00022478,0.00116587,-0.00028155
 ,0.00021242,-0.00009298,-0.00003315,-0.00000350,-0.00004942,-0.0000694
 3,0.00000226,-0.00010598,0.00004364,0.00003116,-0.00105630,-0.00060502
 ,0.00060528,0.00486045,0.00837261,0.00982470,0.06163366,0.13863401,-0.
 00004479,0.00040900,0.00001166,0.00149447,0.00042406,0.00036934,-0.000
 32183,0.00068166,-0.00017759,0.00033808,0.00411566,0.00217582,0.001071
 54,-0.00048371,0.00039034,-0.07429417,-0.11346997,-0.18972833,0.002909
 97,0.00259311,0.00128738,0.00103577,0.00019368,0.00035517,-0.00134974,
 0.00026100,0.00036363,-0.00001249,-0.00001414,-0.00002418,-0.00004772,
 -0.00005736,-0.00001684,0.00008825,0.00003705,0.00004097,0.00014757,0.
 00015112,-0.00005186,-0.01014388,-0.01728273,-0.01965519,0.07938647,0.
 12215852,0.20425841,-0.00032170,-0.00000672,0.00026187,-0.00117891,-0.
 00035792,0.00233883,-0.00024991,0.00039900,0.00041719,0.00059944,0.000
 80058,0.00038935,-0.00022093,-0.00022474,-0.00008305,0.00138186,0.0006
 6932,-0.00023003,0.00093615,0.01440205,0.00245076,-0.05421797,-0.04528
 302,-0.00489223,-0.00045402,-0.00015783,-0.00154213,0.00003120,-0.0000
 1725,-0.00005098,0.00041895,0.00021086,-0.00019552,0.00019224,0.000029
 04,-0.00019255,-0.00002847,0.00009903,-0.00047773,0.00009800,-0.000066
 20,-0.00007964,-0.00038906,-0.00010427,-0.00024325,0.05546163,0.000330
 14,0.00008550,0.00012522,0.00148643,0.00096486,-0.00194158,-0.00000677
 ,0.00012731,-0.00037888,-0.00064794,-0.00122451,0.00005072,0.00031444,
 0.00034217,0.00009302,-0.00090215,0.00122573,-0.00031884,-0.00134650,-
 0.01251449,0.00016517,-0.04442546,-0.29340093,-0.02679411,-0.00044549,
 0.00270896,0.00033396,-0.00002579,-0.00001758,-0.00004068,0.00009808,0
 .00011267,0.00007909,-0.00004469,-0.00003318,-0.00000763,0.00015935,0.
 00001775,0.00026776,0.00020865,0.00005736,0.00007190,0.00073876,0.0001
 4325,0.00024412,0.04819917,0.31995996,0.00021647,-0.00012111,0.0000955
 9,0.00253035,0.00054497,-0.00438570,0.00036377,-0.00096438,0.00005382,
 -0.00085326,-0.00118026,-0.00043748,0.00030972,0.00034163,0.00009857,-
 0.00162308,0.00099391,0.00065658,-0.00431306,-0.03044209,-0.00684660,-
 0.00555899,-0.02682569,-0.04833780,0.00040599,0.00006509,0.00359303,-0
 .00002612,-0.00003062,0.00000897,-0.00016084,-0.00004085,-0.00003319,-
 0.00011333,-0.00004088,0.00007826,0.00017843,-0.00015943,0.00066087,-0
 .00000340,0.00003158,0.00000774,0.00017830,0.00026709,0.00028466,0.003
 58667,0.03176532,0.05304584,-0.00008985,-0.00015267,0.00003952,0.00048
 397,-0.00009840,-0.00016913,-0.00001490,-0.00005820,0.00003989,0.00006
 741,0.00003014,-0.00001804,-0.00010455,0.00001148,-0.00001660,0.000244
 81,-0.00009515,0.00013559,0.00399644,-0.00750828,0.00783048,-0.0953506
 4,0.05477142,-0.08621110,0.00166077,0.00017251,0.00410497,-0.00006376,
 0.00003378,0.00012403,-0.00009863,0.00011281,-0.00016625,0.00005801,-0
 .00003546,-0.00003442,-0.00002302,-0.00001362,0.00005560,0.00020483,0.
 00004108,-0.00019051,-0.00011960,-0.00015713,0.00006112,0.00185079,-0.
 00330970,0.00540099,0.09895746,0.00003478,-0.00006171,0.00001970,-0.00
 035713,0.00013343,-0.00025587,-0.00016045,-0.00008568,-0.00000152,0.00
 035951,0.00052360,0.00005150,-0.00015639,-0.00012550,-0.00006842,0.000
 04370,0.00040090,0.00032241,-0.00516529,0.00362498,-0.00669786,0.05468
 181,-0.10765751,0.09932152,0.00025121,0.00160025,-0.00361551,-0.000006
 11,0.00005219,0.00004797,-0.00004803,0.00000973,-0.00002358,-0.0000032
 0,-0.00001180,-0.00001265,-0.00001514,-0.00001441,-0.00004606,-0.00012
 522,-0.00013239,-0.00014897,-0.00023696,-0.00025563,0.00007997,0.01347
 990,-0.01444968,0.02453686,-0.06007053,0.11419118,0.00000619,-0.000283
 04,-0.00010533,-0.00084516,0.00103317,0.00053676,0.00022523,-0.0005350
 0,0.00061973,0.00071697,0.00030759,-0.00012256,0.00005635,-0.00024526,
 0.00001536,-0.00043320,-0.00078807,0.00086950,-0.01409247,0.01509222,-
 0.01672827,-0.08396136,0.09735388,-0.20309851,0.00186437,-0.00050678,-
 0.00878820,0.00012470,0.00015680,0.00009514,-0.00004725,0.00003368,-0.
 00010606,-0.00003664,-0.00005738,-0.00000878,0.00008408,-0.00005637,-0
 .00009728,-0.00033431,0.00011461,0.00031331,0.00050884,0.00033688,0.00
 018782,0.00198651,-0.00222435,0.00334139,0.09343211,-0.10733513,0.2214
 7159,-0.00020130,-0.00033818,0.00019460,-0.00057523,-0.00078527,-0.000
 19697,0.00036998,0.00034160,0.00008582,-0.00027912,-0.00150249,0.00031
 108,-0.00020503,0.00064180,-0.00017470,0.00053025,0.00096349,0.0025674
 3,-0.01392278,-0.00083963,-0.00134930,-0.30631377,-0.04130805,0.003422
 31,0.00249524,-0.00045153,-0.00070121,0.00005926,0.00004377,-0.0000064
 5,0.00069160,0.00000357,-0.00053793,0.00028876,-0.00001986,-0.00022332
 ,0.00004359,0.00009671,-0.00000590,-0.00072268,0.00031810,0.00026570,0
 .00053769,0.00015641,0.00011047,-0.00441747,-0.00017897,-0.00023517,-0
 .01126649,-0.00261016,0.00083107,0.33326130,0.00019012,-0.00014076,-0.
 00058359,0.00087047,0.00049548,0.00065223,-0.00016234,-0.00012361,-0.0
 0017647,0.00013815,0.00048911,0.00012928,-0.00007233,-0.00017492,0.000
 09045,0.00007134,0.00043054,-0.00247199,0.01146933,0.00068670,0.000638
 02,-0.04182678,-0.05409853,-0.00004754,-0.00027250,-0.00025434,0.00083
 553,-0.00005660,0.00006916,0.00010482,-0.00046021,-0.00085470,-0.00035
 075,-0.00008958,0.00002388,0.00021106,0.00001272,-0.00000090,-0.000082
 40,0.00070770,-0.00006940,-0.00010542,0.00016783,0.00005655,0.00017489
 ,-0.03159171,-0.00420548,0.00039379,0.01593907,0.00222082,-0.00115317,
 0.04555029,0.05557176,0.00003172,-0.00019578,-0.00033913,-0.00018767,0
 .00100195,0.00100553,-0.00003002,-0.00009779,0.00004629,0.00050907,0.0
 0136479,-0.00063182,0.00039293,-0.00071455,0.00040346,0.00100202,-0.00
 220724,-0.00458189,0.02947744,0.00435121,-0.00071809,0.00101569,0.0008
 1067,-0.04745526,-0.00145859,-0.00033716,0.00315460,-0.00005217,-0.000
 08018,-0.00011688,-0.00019969,-0.00046109,0.00018303,-0.00015679,0.000
 04727,0.00008660,-0.00003996,-0.00004061,-0.00008381,0.00123386,-0.000
 14606,-0.00002872,0.00000724,0.00012436,0.00005344,-0.00299640,-0.0000
 6814,-0.00081201,-0.02430897,-0.00541414,0.00118657,-0.00454173,0.0017
 6101,0.04892433,-0.00020696,-0.00019878,-0.00047115,-0.00114126,0.0000
 5698,-0.00179926,-0.00003185,-0.00004705,-0.00006810,-0.00044087,0.002
 08774,-0.00011591,0.00033588,-0.00071212,0.00020603,0.00117158,-0.0004
 3796,-0.00011634,-0.00229181,0.02217892,0.00037212,0.00070044,-0.00048
 181,-0.00000971,-0.01118657,-0.02631259,-0.02158477,0.00042853,0.00013
 201,0.00030474,-0.00005383,-0.00009792,0.00015784,0.00000065,-0.000035
 97,0.00021635,-0.00016128,-0.00002598,0.00023431,-0.00102684,0.0003184
 3,0.00058850,0.00015217,0.00005241,-0.00018583,0.00050819,-0.00020155,
 -0.00028346,-0.00039306,0.00010370,-0.00008604,-0.00037380,-0.00058496
 ,0.00030203,0.01401071,0.00036542,0.00049000,0.00000432,0.00301535,-0.
 00090417,0.00373927,-0.00052994,-0.00043348,0.00011820,-0.00018952,-0.
 00164878,0.00010237,-0.00031878,0.00074203,-0.00006960,-0.00019401,0.0
 0162621,-0.00087858,-0.00242026,-0.02256837,-0.00583396,-0.00142401,0.
 00345048,-0.00142022,-0.00329699,-0.49070539,-0.07167599,0.00011214,0.
 00008874,-0.00003840,-0.00005972,-0.00008789,0.00006430,0.00001932,0.0
 0006609,0.00000624,0.00029774,0.00012113,-0.00025816,0.00062548,0.0001
 3451,0.00001151,-0.00003465,0.00005740,-0.00021590,-0.00047929,0.00010
 031,0.00086509,0.00038684,0.00003723,-0.00124428,-0.00008158,-0.000121
 36,0.00030149,0.00420648,0.50955531,-0.00022122,-0.00019258,0.00009375
 ,-0.00325420,0.00224814,-0.00495400,0.00009285,0.00124175,0.00043882,0
 .00007932,0.00056485,-0.00041403,0.00010705,-0.00018740,0.00001043,-0.
 00013196,-0.00038756,0.00033206,-0.00110426,0.03835075,0.00065121,0.00
 096662,0.00238700,0.00178328,-0.01883312,-0.11814306,-0.05257403,0.000
 45853,0.00025652,0.00007432,0.00013386,0.00002130,0.00003712,0.0000507
 2,-0.00007062,0.00008679,-0.00032555,0.00005313,0.00051897,0.00029248,
 -0.00029861,-0.00003980,-0.00027701,-0.00006388,-0.00012463,-0.0004476
 8,-0.00142206,-0.00107255,-0.00010927,-0.00076023,0.00041781,0.0001842
 2,-0.00001974,-0.00027624,0.02233864,0.07642231,0.05501071\\0.00003313
 ,0.00000029,0.00000931,-0.00002277,0.00003434,-0.00001845,0.00001076,-
 0.00000685,-0.00000670,0.00002431,-0.00002961,0.00000010,-0.00001535,0
 .00001133,-0.00000490,-0.00002384,0.00002128,0.00000753,0.00002855,-0.
 00002821,0.00005387,0.00000776,-0.00000036,-0.00002073,-0.00002298,0.0
 0001554,-0.00002435,-0.00000502,0.00000168,-0.00000603,-0.00000930,-0.
 00000148,-0.00000645,-0.00000178,0.00000027,-0.00001229,-0.00000884,0.
 00000098,-0.00001007,0.00000120,0.00000099,0.00000336,0.00000351,-0.00
 000227,0.00000469,-0.00000143,-0.00000716,0.00001047,-0.00000195,-0.00
 000994,0.00000774,-0.00000199,-0.00000734,0.00000417,0.00000602,0.0000
 0650,0.00000874\\\@


 YOU WILL NEVER "FIND" TIME FOR ANYTHING.
 IF YOU WANT TIME, YOU MUST MAKE IT.

                        -- CHARLES BIXTON
 Job cpu time:       0 days  0 hours 48 minutes 32.1 seconds.
 File lengths (MBytes):  RWF=    152 Int=      0 D2E=      0 Chk=      8 Scr=      1
 Normal termination of Gaussian 09 at Mon Jan 27 22:52:22 2020.
