 Entering Gaussian System, Link 0=/home/puck/opt/gaussian_09/g09
 Input=dsC7O2H10nsd_6007.com
 Output=dsC7O2H10nsd_6007.log
 Initial command:
 /home/puck/opt/gaussian_09/l1.exe "/scratch/puck/g09_bcf8e418-c2c1-48a3-b6f7-0fbb5ade0529/Gau-144517.inp" -scrdir="/scratch/puck/g09_bcf8e418-c2c1-48a3-b6f7-0fbb5ade0529/"
 Entering Link 1 = /home/puck/opt/gaussian_09/l1.exe PID=    144539.
  
 Copyright (c) 1988,1990,1992,1993,1995,1998,2003,2009,2013,
            Gaussian, Inc.  All Rights Reserved.
  
 This is part of the Gaussian(R) 09 program.  It is based on
 the Gaussian(R) 03 system (copyright 2003, Gaussian, Inc.),
 the Gaussian(R) 98 system (copyright 1998, Gaussian, Inc.),
 the Gaussian(R) 94 system (copyright 1995, Gaussian, Inc.),
 the Gaussian 92(TM) system (copyright 1992, Gaussian, Inc.),
 the Gaussian 90(TM) system (copyright 1990, Gaussian, Inc.),
 the Gaussian 88(TM) system (copyright 1988, Gaussian, Inc.),
 the Gaussian 86(TM) system (copyright 1986, Carnegie Mellon
 University), and the Gaussian 82(TM) system (copyright 1983,
 Carnegie Mellon University). Gaussian is a federally registered
 trademark of Gaussian, Inc.
  
 This software contains proprietary and confidential information,
 including trade secrets, belonging to Gaussian, Inc.
  
 This software is provided under written license and may be
 used, copied, transmitted, or stored only in accord with that
 written license.
  
 The following legend is applicable only to US Government
 contracts under FAR:
  
                    RESTRICTED RIGHTS LEGEND
  
 Use, reproduction and disclosure by the US Government is
 subject to restrictions as set forth in subparagraphs (a)
 and (c) of the Commercial Computer Software - Restricted
 Rights clause in FAR 52.227-19.
  
 Gaussian, Inc.
 340 Quinnipiac St., Bldg. 40, Wallingford CT 06492
  
  
 ---------------------------------------------------------------
 Warning -- This program may not be used in any manner that
 competes with the business of Gaussian, Inc. or will provide
 assistance to any competitor of Gaussian, Inc.  The licensee
 of this program is prohibited from giving any competitor of
 Gaussian, Inc. access to this program.  By using this program,
 the user acknowledges that Gaussian, Inc. is engaged in the
 business of creating and licensing software in the field of
 computational chemistry and represents and warrants to the
 licensee that it is not a competitor of Gaussian, Inc. and that
 it will not use this program in any manner prohibited above.
 ---------------------------------------------------------------
  

 Cite this work as:
 Gaussian 09, Revision D.01,
 M. J. Frisch, G. W. Trucks, H. B. Schlegel, G. E. Scuseria, 
 M. A. Robb, J. R. Cheeseman, G. Scalmani, V. Barone, B. Mennucci, 
 G. A. Petersson, H. Nakatsuji, M. Caricato, X. Li, H. P. Hratchian, 
 A. F. Izmaylov, J. Bloino, G. Zheng, J. L. Sonnenberg, M. Hada, 
 M. Ehara, K. Toyota, R. Fukuda, J. Hasegawa, M. Ishida, T. Nakajima, 
 Y. Honda, O. Kitao, H. Nakai, T. Vreven, J. A. Montgomery, Jr., 
 J. E. Peralta, F. Ogliaro, M. Bearpark, J. J. Heyd, E. Brothers, 
 K. N. Kudin, V. N. Staroverov, T. Keith, R. Kobayashi, J. Normand, 
 K. Raghavachari, A. Rendell, J. C. Burant, S. S. Iyengar, J. Tomasi, 
 M. Cossi, N. Rega, J. M. Millam, M. Klene, J. E. Knox, J. B. Cross, 
 V. Bakken, C. Adamo, J. Jaramillo, R. Gomperts, R. E. Stratmann, 
 O. Yazyev, A. J. Austin, R. Cammi, C. Pomelli, J. W. Ochterski, 
 R. L. Martin, K. Morokuma, V. G. Zakrzewski, G. A. Voth, 
 P. Salvador, J. J. Dannenberg, S. Dapprich, A. D. Daniels, 
 O. Farkas, J. B. Foresman, J. V. Ortiz, J. Cioslowski, 
 and D. J. Fox, Gaussian, Inc., Wallingford CT, 2013.
 
 ******************************************
 Gaussian 09:  ES64L-G09RevD.01 24-Apr-2013
                28-Jan-2020 
 ******************************************
 -----------------------------
 # b3lyp 6-31G(2df,p) opt Freq
 -----------------------------
 1/14=-1,18=20,19=15,26=3,38=1/1,3;
 2/9=110,12=2,17=6,18=5,40=1/2;
 3/5=1,6=6,7=104,11=2,16=1,25=1,30=1,71=1,74=-5/1,2,3;
 4//1;
 5/5=2,38=5/2;
 6/7=2,8=2,9=2,10=2,28=1/1;
 7//1,2,3,16;
 1/14=-1,18=20,19=15,26=3/3(2);
 2/9=110/2;
 99//99;
 2/9=110/2;
 3/5=1,6=6,7=104,11=2,16=1,25=1,30=1,71=1,74=-5/1,2,3;
 4/5=5,16=3,69=1/1;
 5/5=2,38=5/2;
 7//1,2,3,16;
 1/14=-1,18=20,19=15,26=3/3(-5);
 2/9=110/2;
 6/7=2,8=2,9=2,10=2,19=2,28=1/1;
 99/9=1/99;
 -----
 titel
 -----
 Symbolic Z-matrix:
 Charge =  0 Multiplicity = 1
 O                     1.48204   0.9233   -0.15944 
 C                     0.18987   0.45005   0.18966 
 C                    -0.82483   1.18358  -0.67995 
 C                    -2.26129   0.73084  -0.44055 
 C                    -2.90033   1.24478   0.85647 
 C                    -4.38964   1.41921   0.50645 
 O                    -4.58749   0.9642   -0.83168 
 C                    -3.32647   1.62077  -1.14306 
 C                    -3.42765   2.50021   0.16185 
 H                     2.12802   0.46592   0.38646 
 H                     0.10379  -0.6363    0.02237 
 H                    -0.02615   0.63313   1.2545 
 H                    -0.72921   2.26045  -0.49537 
 H                    -0.55629   1.01511  -1.7305 
 H                    -2.37716  -0.33916  -0.65421 
 H                    -2.55452   1.14257   1.87754 
 H                    -5.20717   1.35904   1.21237 
 H                    -3.24012   1.93913  -2.18051 
 H                    -3.37125   3.55649   0.38238 
 

 GradGradGradGradGradGradGradGradGradGradGradGradGradGradGradGradGradGrad
 Berny optimization.
 Initialization pass.
                           ----------------------------
                           !    Initial Parameters    !
                           ! (Angstroms and Degrees)  !
 --------------------------                            --------------------------
 ! Name  Definition              Value          Derivative Info.                !
 --------------------------------------------------------------------------------
 ! R1    R(1,2)                  1.4197         estimate D2E/DX2                !
 ! R2    R(1,10)                 0.9615         estimate D2E/DX2                !
 ! R3    R(2,3)                  1.5244         estimate D2E/DX2                !
 ! R4    R(2,11)                 1.1025         estimate D2E/DX2                !
 ! R5    R(2,12)                 1.1019         estimate D2E/DX2                !
 ! R6    R(3,4)                  1.525          estimate D2E/DX2                !
 ! R7    R(3,13)                 1.0968         estimate D2E/DX2                !
 ! R8    R(3,14)                 1.0973         estimate D2E/DX2                !
 ! R9    R(4,5)                  1.5345         estimate D2E/DX2                !
 ! R10   R(4,8)                  1.5557         estimate D2E/DX2                !
 ! R11   R(4,15)                 1.0973         estimate D2E/DX2                !
 ! R12   R(5,6)                  1.5398         estimate D2E/DX2                !
 ! R13   R(5,9)                  1.5286         estimate D2E/DX2                !
 ! R14   R(5,16)                 1.0829         estimate D2E/DX2                !
 ! R15   R(6,7)                  1.4272         estimate D2E/DX2                !
 ! R16   R(6,9)                  1.4875         estimate D2E/DX2                !
 ! R17   R(6,17)                 1.0818         estimate D2E/DX2                !
 ! R18   R(7,8)                  1.4554         estimate D2E/DX2                !
 ! R19   R(8,9)                  1.5768         estimate D2E/DX2                !
 ! R20   R(8,18)                 1.0886         estimate D2E/DX2                !
 ! R21   R(9,19)                 1.0805         estimate D2E/DX2                !
 ! A1    A(2,1,10)             108.259          estimate D2E/DX2                !
 ! A2    A(1,2,3)              107.7679         estimate D2E/DX2                !
 ! A3    A(1,2,11)             111.2355         estimate D2E/DX2                !
 ! A4    A(1,2,12)             111.1425         estimate D2E/DX2                !
 ! A5    A(3,2,11)             109.6092         estimate D2E/DX2                !
 ! A6    A(3,2,12)             109.9277         estimate D2E/DX2                !
 ! A7    A(11,2,12)            107.1612         estimate D2E/DX2                !
 ! A8    A(2,3,4)              113.2393         estimate D2E/DX2                !
 ! A9    A(2,3,13)             108.5683         estimate D2E/DX2                !
 ! A10   A(2,3,14)             108.0209         estimate D2E/DX2                !
 ! A11   A(4,3,13)             110.3155         estimate D2E/DX2                !
 ! A12   A(4,3,14)             109.5856         estimate D2E/DX2                !
 ! A13   A(13,3,14)            106.8888         estimate D2E/DX2                !
 ! A14   A(3,4,5)              115.1831         estimate D2E/DX2                !
 ! A15   A(3,4,8)              113.8432         estimate D2E/DX2                !
 ! A16   A(3,4,15)             111.002          estimate D2E/DX2                !
 ! A17   A(5,4,8)               84.5455         estimate D2E/DX2                !
 ! A18   A(5,4,15)             116.5642         estimate D2E/DX2                !
 ! A19   A(8,4,15)             113.4289         estimate D2E/DX2                !
 ! A20   A(4,5,6)              104.3946         estimate D2E/DX2                !
 ! A21   A(4,5,9)               91.9854         estimate D2E/DX2                !
 ! A22   A(4,5,16)             129.2262         estimate D2E/DX2                !
 ! A23   A(6,5,16)             122.2697         estimate D2E/DX2                !
 ! A24   A(9,5,16)             128.0358         estimate D2E/DX2                !
 ! A25   A(5,6,7)              108.1259         estimate D2E/DX2                !
 ! A26   A(5,6,17)             125.1905         estimate D2E/DX2                !
 ! A27   A(7,6,9)               95.9777         estimate D2E/DX2                !
 ! A28   A(7,6,17)             119.2968         estimate D2E/DX2                !
 ! A29   A(9,6,17)             132.8677         estimate D2E/DX2                !
 ! A30   A(6,7,8)               86.3678         estimate D2E/DX2                !
 ! A31   A(4,8,7)              103.8027         estimate D2E/DX2                !
 ! A32   A(4,8,9)               89.3861         estimate D2E/DX2                !
 ! A33   A(4,8,18)             122.9103         estimate D2E/DX2                !
 ! A34   A(7,8,9)               91.0865         estimate D2E/DX2                !
 ! A35   A(7,8,18)             113.8624         estimate D2E/DX2                !
 ! A36   A(9,8,18)             129.0963         estimate D2E/DX2                !
 ! A37   A(5,9,8)               84.0222         estimate D2E/DX2                !
 ! A38   A(5,9,19)             133.7971         estimate D2E/DX2                !
 ! A39   A(6,9,8)               80.09           estimate D2E/DX2                !
 ! A40   A(6,9,19)             134.1767         estimate D2E/DX2                !
 ! A41   A(8,9,19)             135.2967         estimate D2E/DX2                !
 ! D1    D(10,1,2,3)           179.9027         estimate D2E/DX2                !
 ! D2    D(10,1,2,11)          -59.9246         estimate D2E/DX2                !
 ! D3    D(10,1,2,12)           59.3947         estimate D2E/DX2                !
 ! D4    D(1,2,3,4)            177.9379         estimate D2E/DX2                !
 ! D5    D(1,2,3,13)           -59.1847         estimate D2E/DX2                !
 ! D6    D(1,2,3,14)            56.3819         estimate D2E/DX2                !
 ! D7    D(11,2,3,4)            56.7447         estimate D2E/DX2                !
 ! D8    D(11,2,3,13)          179.6221         estimate D2E/DX2                !
 ! D9    D(11,2,3,14)          -64.8113         estimate D2E/DX2                !
 ! D10   D(12,2,3,4)           -60.7934         estimate D2E/DX2                !
 ! D11   D(12,2,3,13)           62.084          estimate D2E/DX2                !
 ! D12   D(12,2,3,14)          177.6506         estimate D2E/DX2                !
 ! D13   D(2,3,4,5)             75.2509         estimate D2E/DX2                !
 ! D14   D(2,3,4,8)            170.5853         estimate D2E/DX2                !
 ! D15   D(2,3,4,15)           -59.9716         estimate D2E/DX2                !
 ! D16   D(13,3,4,5)           -46.6543         estimate D2E/DX2                !
 ! D17   D(13,3,4,8)            48.6801         estimate D2E/DX2                !
 ! D18   D(13,3,4,15)          178.1232         estimate D2E/DX2                !
 ! D19   D(14,3,4,5)          -164.0758         estimate D2E/DX2                !
 ! D20   D(14,3,4,8)           -68.7414         estimate D2E/DX2                !
 ! D21   D(14,3,4,15)           60.7017         estimate D2E/DX2                !
 ! D22   D(3,4,5,6)            147.098          estimate D2E/DX2                !
 ! D23   D(3,4,5,9)             89.6858         estimate D2E/DX2                !
 ! D24   D(3,4,5,16)           -55.8185         estimate D2E/DX2                !
 ! D25   D(8,4,5,6)             33.2805         estimate D2E/DX2                !
 ! D26   D(8,4,5,9)            -24.1317         estimate D2E/DX2                !
 ! D27   D(8,4,5,16)          -169.636          estimate D2E/DX2                !
 ! D28   D(15,4,5,6)           -80.2239         estimate D2E/DX2                !
 ! D29   D(15,4,5,9)          -137.6361         estimate D2E/DX2                !
 ! D30   D(15,4,5,16)           76.8596         estimate D2E/DX2                !
 ! D31   D(3,4,8,7)            177.2086         estimate D2E/DX2                !
 ! D32   D(3,4,8,9)            -91.8234         estimate D2E/DX2                !
 ! D33   D(3,4,8,18)            46.2741         estimate D2E/DX2                !
 ! D34   D(5,4,8,7)            -67.6324         estimate D2E/DX2                !
 ! D35   D(5,4,8,9)             23.3356         estimate D2E/DX2                !
 ! D36   D(5,4,8,18)           161.433          estimate D2E/DX2                !
 ! D37   D(15,4,8,7)            48.9972         estimate D2E/DX2                !
 ! D38   D(15,4,8,9)           139.9652         estimate D2E/DX2                !
 ! D39   D(15,4,8,18)          -81.9374         estimate D2E/DX2                !
 ! D40   D(4,5,6,7)              3.435          estimate D2E/DX2                !
 ! D41   D(4,5,6,17)           152.8492         estimate D2E/DX2                !
 ! D42   D(16,5,6,7)          -155.6646         estimate D2E/DX2                !
 ! D43   D(16,5,6,17)           -6.2504         estimate D2E/DX2                !
 ! D44   D(4,5,9,8)             23.8106         estimate D2E/DX2                !
 ! D45   D(4,5,9,19)          -129.0235         estimate D2E/DX2                !
 ! D46   D(16,5,9,8)           169.9608         estimate D2E/DX2                !
 ! D47   D(16,5,9,19)           17.1267         estimate D2E/DX2                !
 ! D48   D(5,6,7,8)            -40.7447         estimate D2E/DX2                !
 ! D49   D(9,6,7,8)             20.2642         estimate D2E/DX2                !
 ! D50   D(17,6,7,8)           167.7333         estimate D2E/DX2                !
 ! D51   D(7,6,9,8)            -18.8969         estimate D2E/DX2                !
 ! D52   D(7,6,9,19)           127.8526         estimate D2E/DX2                !
 ! D53   D(17,6,9,8)          -159.1152         estimate D2E/DX2                !
 ! D54   D(17,6,9,19)          -12.3658         estimate D2E/DX2                !
 ! D55   D(6,7,8,4)             70.6684         estimate D2E/DX2                !
 ! D56   D(6,7,8,9)            -18.9663         estimate D2E/DX2                !
 ! D57   D(6,7,8,18)          -153.2398         estimate D2E/DX2                !
 ! D58   D(4,8,9,5)            -23.4539         estimate D2E/DX2                !
 ! D59   D(4,8,9,6)            -85.3783         estimate D2E/DX2                !
 ! D60   D(4,8,9,19)           128.6101         estimate D2E/DX2                !
 ! D61   D(7,8,9,5)             80.3401         estimate D2E/DX2                !
 ! D62   D(7,8,9,6)             18.4157         estimate D2E/DX2                !
 ! D63   D(7,8,9,19)          -127.5959         estimate D2E/DX2                !
 ! D64   D(18,8,9,5)          -157.1964         estimate D2E/DX2                !
 ! D65   D(18,8,9,6)           140.8793         estimate D2E/DX2                !
 ! D66   D(18,8,9,19)           -5.1324         estimate D2E/DX2                !
 --------------------------------------------------------------------------------
 Trust Radius=3.00D-01 FncErr=1.00D-07 GrdErr=1.00D-06
 Number of steps in this run=    114 maximum allowed number of steps=    114.
 GradGradGradGradGradGradGradGradGradGradGradGradGradGradGradGradGradGrad

                          Input orientation:                          
 ---------------------------------------------------------------------
 Center     Atomic      Atomic             Coordinates (Angstroms)
 Number     Number       Type             X           Y           Z
 ---------------------------------------------------------------------
      1          8           0        1.482044    0.923297   -0.159444
      2          6           0        0.189868    0.450046    0.189657
      3          6           0       -0.824827    1.183575   -0.679946
      4          6           0       -2.261285    0.730839   -0.440555
      5          6           0       -2.900332    1.244782    0.856466
      6          6           0       -4.389637    1.419212    0.506448
      7          8           0       -4.587491    0.964198   -0.831682
      8          6           0       -3.326471    1.620771   -1.143057
      9          6           0       -3.427649    2.500214    0.161849
     10          1           0        2.128024    0.465920    0.386462
     11          1           0        0.103794   -0.636303    0.022365
     12          1           0       -0.026151    0.633135    1.254499
     13          1           0       -0.729214    2.260451   -0.495374
     14          1           0       -0.556287    1.015114   -1.730505
     15          1           0       -2.377157   -0.339162   -0.654208
     16          1           0       -2.554521    1.142574    1.877544
     17          1           0       -5.207170    1.359039    1.212372
     18          1           0       -3.240118    1.939133   -2.180511
     19          1           0       -3.371254    3.556493    0.382383
 ---------------------------------------------------------------------
                    Distance matrix (angstroms):
                    1          2          3          4          5
     1  O    0.000000
     2  C    1.419703   0.000000
     3  C    2.379144   1.524428   0.000000
     4  C    3.758800   2.546402   1.525021   0.000000
     5  C    4.510061   3.259690   2.583027   1.534529   0.000000
     6  C    5.930092   4.691643   3.764429   2.429106   1.539795
     7  O    6.106786   4.912295   3.772106   2.370373   2.403139
     8  C    4.957397   3.938447   2.581440   1.555670   2.078714
     9  C    5.166719   4.158172   3.035925   2.203175   1.528615
    10  H    0.961508   1.948187   3.220495   4.474391   5.109980
    11  H    2.089254   1.102519   2.160448   2.770735   3.641288
    12  H    2.087602   1.101851   2.164012   2.806881   2.965377
    13  H    2.605858   2.142789   1.096754   2.165631   2.751873
    14  H    2.575161   2.136134   1.097346   2.156804   3.498530
    15  H    4.090480   2.815062   2.174654   1.097259   2.250495
    16  H    4.526728   3.295486   3.087762   2.372571   1.082881
    17  H    6.842320   5.567785   4.776670   3.435846   2.336926
    18  H    5.235976   4.427175   2.942140   2.333567   3.133816
    19  H    5.548135   4.729561   3.639172   3.145406   2.406352
                    6          7          8          9         10
     6  C    0.000000
     7  O    1.427156   0.000000
     8  C    1.972768   1.455408   0.000000
     9  C    1.487526   2.166028   1.576844   0.000000
    10  H    6.588101   6.843267   5.781404   5.920668   0.000000
    11  H    4.964917   5.029826   4.268408   4.725281   2.333447
    12  H    4.496389   5.026687   4.197120   4.031137   2.328501
    13  H    3.887162   4.084075   2.752168   2.787648   3.487376
    14  H    4.456661   4.130506   2.895831   3.745830   3.462469
    15  H    2.913602   2.572124   2.231929   3.135528   4.693379
    16  H    2.307398   3.391856   3.154141   2.355663   4.960587
    17  H    1.081808   2.172109   3.025488   2.360629   7.435379
    18  H    2.968410   2.141320   1.088633   2.415911   6.129980
    19  H    2.370753   3.110173   2.464953   1.080529   6.308227
                   11         12         13         14         15
    11  H    0.000000
    12  H    1.773841   0.000000
    13  H    3.058290   2.490886   0.000000
    14  H    2.497086   3.055683   1.762475   0.000000
    15  H    2.588660   3.180527   3.082034   2.511583   0.000000
    16  H    3.697665   2.653370   3.195642   4.126403   2.938837
    17  H    5.796882   5.231794   4.876579   5.514483   3.791699
    18  H    4.761016   4.882060   3.040982   2.873893   2.874879
    19  H    5.457574   4.527287   3.070921   4.341306   4.151973
                   16         17         18         19
    16  H    0.000000
    17  H    2.743329   0.000000
    18  H    4.191939   3.964525   0.000000
    19  H    2.954583   2.981321   3.033394   0.000000
 Stoichiometry    C7H10O2
 Framework group  C1[X(C7H10O2)]
 Deg. of freedom    51
 Full point group                 C1      NOp   1
 Largest Abelian subgroup         C1      NOp   1
 Largest concise Abelian subgroup C1      NOp   1
                         Standard orientation:                         
 ---------------------------------------------------------------------
 Center     Atomic      Atomic             Coordinates (Angstroms)
 Number     Number       Type             X           Y           Z
 ---------------------------------------------------------------------
      1          8           0       -3.574833   -0.023157    0.273875
      2          6           0       -2.374838    0.268510   -0.426482
      3          6           0       -1.246925   -0.512910    0.237654
      4          6           0        0.100567   -0.328045   -0.452114
      5          6           0        0.788642    1.018431   -0.190703
      6          6           0        2.292722    0.689084   -0.206232
      7          8           0        2.441406   -0.692349   -0.532286
      8          6           0        1.299279   -0.925692    0.339098
      9          6           0        1.510806    0.470768    1.040235
     10          1           0       -4.291313    0.467754   -0.138630
     11          1           0       -2.451115   -0.021481   -1.487442
     12          1           0       -2.151062    1.347061   -0.399521
     13          1           0       -1.181788   -0.206820    1.288813
     14          1           0       -1.520636   -1.575553    0.231426
     15          1           0        0.056967   -0.662263   -1.496324
     16          1           0        0.414732    2.021570   -0.353603
     17          1           0        3.080148    1.382759   -0.469073
     18          1           0        1.278957   -1.920060    0.781750
     19          1           0        1.611007    0.810202    2.061159
 ---------------------------------------------------------------------
 Rotational constants (GHZ):      5.1865875      0.8578607      0.8273127
 Standard basis: 6-31G(2df,p) (6D, 7F)
 There are   329 symmetry adapted cartesian basis functions of A   symmetry.
 There are   302 symmetry adapted basis functions of A   symmetry.
   302 basis functions,   466 primitive gaussians,   329 cartesian basis functions
    34 alpha electrons       34 beta electrons
       nuclear repulsion energy       454.5029648947 Hartrees.
 NAtoms=   19 NActive=   19 NUniq=   19 SFac= 1.00D+00 NAtFMM=   60 NAOKFM=F Big=F
 Integral buffers will be    131072 words long.
 Raffenetti 2 integral format.
 Two-electron integral symmetry is turned on.
 One-electron integrals computed using PRISM.
 NBasis=   302 RedAO= T EigKep=  2.95D-04  NBF=   302
 NBsUse=   302 1.00D-06 EigRej= -1.00D+00 NBFU=   302
 ExpMin= 1.61D-01 ExpMax= 5.48D+03 ExpMxC= 8.25D+02 IAcc=1 IRadAn=         1 AccDes= 0.00D+00
 Harris functional with IExCor=  402 and IRadAn=       1 diagonalized for initial guess.
 HarFok:  IExCor=  402 AccDes= 0.00D+00 IRadAn=         1 IDoV= 1 UseB2=F ITyADJ=14
 ICtDFT=  3500011 ScaDFX=  1.000000  1.000000  1.000000  1.000000
 FoFCou: FMM=F IPFlag=           0 FMFlag=      100000 FMFlg1=           0
         NFxFlg=           0 DoJE=T BraDBF=F KetDBF=T FulRan=T
         wScrn=  0.000000 ICntrl=     500 IOpCl=  0 I1Cent=   200000004 NGrid=           0
         NMat0=    1 NMatS0=      1 NMatT0=    0 NMatD0=    1 NMtDS0=    0 NMtDT0=    0
 Petite list used in FoFCou.
 Requested convergence on RMS density matrix=1.00D-08 within 128 cycles.
 Requested convergence on MAX density matrix=1.00D-06.
 Requested convergence on             energy=1.00D-06.
 No special actions if energy rises.
 Integral accuracy reduced to 1.0D-05 until final iterations.
 Initial convergence to 1.0D-05 achieved.  Increase integral accuracy.
 SCF Done:  E(RB3LYP) =  -423.101674040     A.U. after   13 cycles
            NFock= 13  Conv=0.41D-08     -V/T= 2.0074

 **********************************************************************

            Population analysis using the SCF density.

 **********************************************************************

 Orbital symmetries:
       Occupied  (A) (A) (A) (A) (A) (A) (A) (A) (A) (A) (A) (A)
                 (A) (A) (A) (A) (A) (A) (A) (A) (A) (A) (A) (A)
                 (A) (A) (A) (A) (A) (A) (A) (A) (A) (A)
       Virtual   (A) (A) (A) (A) (A) (A) (A) (A) (A) (A) (A) (A)
                 (A) (A) (A) (A) (A) (A) (A) (A) (A) (A) (A) (A)
                 (A) (A) (A) (A) (A) (A) (A) (A) (A) (A) (A) (A)
                 (A) (A) (A) (A) (A) (A) (A) (A) (A) (A) (A) (A)
                 (A) (A) (A) (A) (A) (A) (A) (A) (A) (A) (A) (A)
                 (A) (A) (A) (A) (A) (A) (A) (A) (A) (A) (A) (A)
                 (A) (A) (A) (A) (A) (A) (A) (A) (A) (A) (A) (A)
                 (A) (A) (A) (A) (A) (A) (A) (A) (A) (A) (A) (A)
                 (A) (A) (A) (A) (A) (A) (A) (A) (A) (A) (A) (A)
                 (A) (A) (A) (A) (A) (A) (A) (A) (A) (A) (A) (A)
                 (A) (A) (A) (A) (A) (A) (A) (A) (A) (A) (A) (A)
                 (A) (A) (A) (A) (A) (A) (A) (A) (A) (A) (A) (A)
                 (A) (A) (A) (A) (A) (A) (A) (A) (A) (A) (A) (A)
                 (A) (A) (A) (A) (A) (A) (A) (A) (A) (A) (A) (A)
                 (A) (A) (A) (A) (A) (A) (A) (A) (A) (A) (A) (A)
                 (A) (A) (A) (A) (A) (A) (A) (A) (A) (A) (A) (A)
                 (A) (A) (A) (A) (A) (A) (A) (A) (A) (A) (A) (A)
                 (A) (A) (A) (A) (A) (A) (A) (A) (A) (A) (A) (A)
                 (A) (A) (A) (A) (A) (A) (A) (A) (A) (A) (A) (A)
                 (A) (A) (A) (A) (A) (A) (A) (A) (A) (A) (A) (A)
                 (A) (A) (A) (A) (A) (A) (A) (A) (A) (A) (A) (A)
                 (A) (A) (A) (A) (A) (A) (A) (A) (A) (A) (A) (A)
                 (A) (A) (A) (A)
 The electronic state is 1-A.
 Alpha  occ. eigenvalues --  -19.13378 -19.13267 -10.24204 -10.23895 -10.22663
 Alpha  occ. eigenvalues --  -10.19571 -10.19466 -10.19225 -10.17996  -1.05990
 Alpha  occ. eigenvalues --   -1.01361  -0.85967  -0.77519  -0.70554  -0.64607
 Alpha  occ. eigenvalues --   -0.60598  -0.55564  -0.53715  -0.53399  -0.50071
 Alpha  occ. eigenvalues --   -0.48658  -0.44789  -0.43777  -0.40518  -0.40162
 Alpha  occ. eigenvalues --   -0.38824  -0.35960  -0.34848  -0.33204  -0.31490
 Alpha  occ. eigenvalues --   -0.29423  -0.26777  -0.26321  -0.22921
 Alpha virt. eigenvalues --    0.07648   0.08207   0.09295   0.10517   0.11801
 Alpha virt. eigenvalues --    0.12850   0.13539   0.15315   0.15680   0.16840
 Alpha virt. eigenvalues --    0.17415   0.19250   0.19935   0.21013   0.21634
 Alpha virt. eigenvalues --    0.22214   0.25062   0.27170   0.27935   0.30285
 Alpha virt. eigenvalues --    0.34177   0.40403   0.41967   0.44881   0.46914
 Alpha virt. eigenvalues --    0.47156   0.48678   0.50719   0.51564   0.53406
 Alpha virt. eigenvalues --    0.54585   0.55637   0.57524   0.59509   0.60739
 Alpha virt. eigenvalues --    0.62973   0.63327   0.65831   0.68359   0.68394
 Alpha virt. eigenvalues --    0.69952   0.70823   0.74413   0.74545   0.74950
 Alpha virt. eigenvalues --    0.76060   0.77178   0.78181   0.79550   0.80200
 Alpha virt. eigenvalues --    0.82889   0.85264   0.85588   0.88520   0.90302
 Alpha virt. eigenvalues --    0.91812   0.92950   0.94524   0.95382   0.95985
 Alpha virt. eigenvalues --    0.99896   1.03780   1.04906   1.06786   1.09842
 Alpha virt. eigenvalues --    1.10882   1.13673   1.17677   1.19512   1.21411
 Alpha virt. eigenvalues --    1.22526   1.22751   1.27741   1.29613   1.30148
 Alpha virt. eigenvalues --    1.30826   1.33890   1.34962   1.39862   1.40184
 Alpha virt. eigenvalues --    1.41899   1.43272   1.45426   1.49173   1.51176
 Alpha virt. eigenvalues --    1.52766   1.53734   1.54420   1.54830   1.56560
 Alpha virt. eigenvalues --    1.58495   1.61331   1.62930   1.63516   1.66571
 Alpha virt. eigenvalues --    1.68614   1.71379   1.72651   1.74891   1.78365
 Alpha virt. eigenvalues --    1.78849   1.84860   1.88029   1.90632   1.93978
 Alpha virt. eigenvalues --    1.97462   1.97949   2.06135   2.13250   2.14693
 Alpha virt. eigenvalues --    2.17181   2.23854   2.25691   2.27391   2.32779
 Alpha virt. eigenvalues --    2.37247   2.40958   2.42906   2.46380   2.47588
 Alpha virt. eigenvalues --    2.51402   2.52451   2.54678   2.56872   2.60191
 Alpha virt. eigenvalues --    2.61321   2.63039   2.65449   2.70239   2.71289
 Alpha virt. eigenvalues --    2.76198   2.77070   2.79169   2.81493   2.83131
 Alpha virt. eigenvalues --    2.84836   2.85396   2.87932   2.89267   2.91784
 Alpha virt. eigenvalues --    2.93737   2.95868   2.96423   2.97577   2.99766
 Alpha virt. eigenvalues --    3.03575   3.04508   3.07757   3.12016   3.13178
 Alpha virt. eigenvalues --    3.15352   3.19421   3.20407   3.21091   3.29325
 Alpha virt. eigenvalues --    3.29618   3.31120   3.31998   3.35039   3.37331
 Alpha virt. eigenvalues --    3.38541   3.40985   3.43861   3.45172   3.51692
 Alpha virt. eigenvalues --    3.52716   3.54441   3.56902   3.58636   3.65627
 Alpha virt. eigenvalues --    3.66944   3.70688   3.73042   3.76994   3.77349
 Alpha virt. eigenvalues --    3.82433   3.85356   3.88911   3.90963   3.97932
 Alpha virt. eigenvalues --    4.03619   4.09443   4.11819   4.16450   4.16982
 Alpha virt. eigenvalues --    4.18476   4.20160   4.23916   4.26545   4.31629
 Alpha virt. eigenvalues --    4.32914   4.34213   4.36670   4.38528   4.42435
 Alpha virt. eigenvalues --    4.44302   4.44967   4.48273   4.49560   4.50585
 Alpha virt. eigenvalues --    4.53603   4.54286   4.55865   4.56228   4.56942
 Alpha virt. eigenvalues --    4.57881   4.59216   4.62318   4.63151   4.65615
 Alpha virt. eigenvalues --    4.68575   4.69070   4.70620   4.72673   4.73347
 Alpha virt. eigenvalues --    4.77279   4.79568   4.81710   4.83488   4.86884
 Alpha virt. eigenvalues --    4.89029   4.91225   4.92071   4.93118   4.93937
 Alpha virt. eigenvalues --    4.98486   5.01266   5.04417   5.07251   5.12839
 Alpha virt. eigenvalues --    5.17538   5.24583   5.27840   5.32262   5.36581
 Alpha virt. eigenvalues --    5.38698   5.42084   5.46368   5.47690   5.50097
 Alpha virt. eigenvalues --    5.52694   5.57942   5.61560   5.70219   5.71414
 Alpha virt. eigenvalues --    5.74810   5.80671   5.87862   5.91259   5.93127
 Alpha virt. eigenvalues --    5.99651   6.01458   6.09985   6.13470   6.25497
 Alpha virt. eigenvalues --    6.47151   6.73892   7.05310   7.22896  10.64496
 Alpha virt. eigenvalues --   11.33279  11.56083  11.81482  12.10053  12.38006
 Alpha virt. eigenvalues --   12.70297  13.18679  13.52460
          Condensed to atoms (all electrons):
               1          2          3          4          5          6
     1  O    7.848192   0.356023  -0.034461   0.001285   0.000027   0.000000
     2  C    0.356023   4.742522   0.406138  -0.021276  -0.006045  -0.000112
     3  C   -0.034461   0.406138   4.963125   0.320494  -0.024518   0.000919
     4  C    0.001285  -0.021276   0.320494   4.846103   0.384538  -0.019745
     5  C    0.000027  -0.006045  -0.024518   0.384538   5.074355   0.263932
     6  C    0.000000  -0.000112   0.000919  -0.019745   0.263932   4.761702
     7  O    0.000000  -0.000055   0.002414  -0.034213  -0.034350   0.353473
     8  C   -0.000013   0.001379  -0.019076   0.308858  -0.018518  -0.117231
     9  C   -0.000006  -0.000162  -0.007385  -0.000478   0.231421   0.346008
    10  H    0.303831  -0.049566   0.006398  -0.000358  -0.000002   0.000000
    11  H   -0.029894   0.356829  -0.038587   0.002799  -0.000709   0.000003
    12  H   -0.030214   0.358109  -0.035649  -0.000184   0.004079   0.000080
    13  H    0.002939  -0.032109   0.345729  -0.012822  -0.011385   0.001342
    14  H    0.003067  -0.034467   0.355669  -0.027326   0.005123  -0.000029
    15  H    0.000006  -0.005183  -0.048177   0.352795  -0.053909   0.009617
    16  H    0.000000   0.000484   0.000211  -0.041694   0.372412  -0.034261
    17  H    0.000000  -0.000004  -0.000075   0.001286  -0.050144   0.380528
    18  H    0.000000  -0.000107  -0.000883  -0.053879   0.007647   0.012585
    19  H    0.000000   0.000033   0.000577   0.007477  -0.029127  -0.034325
               7          8          9         10         11         12
     1  O    0.000000  -0.000013  -0.000006   0.303831  -0.029894  -0.030214
     2  C   -0.000055   0.001379  -0.000162  -0.049566   0.356829   0.358109
     3  C    0.002414  -0.019076  -0.007385   0.006398  -0.038587  -0.035649
     4  C   -0.034213   0.308858  -0.000478  -0.000358   0.002799  -0.000184
     5  C   -0.034350  -0.018518   0.231421  -0.000002  -0.000709   0.004079
     6  C    0.353473  -0.117231   0.346008   0.000000   0.000003   0.000080
     7  O    7.787704   0.326850  -0.062389   0.000000   0.000003   0.000001
     8  C    0.326850   4.841512   0.304912   0.000001  -0.000047  -0.000051
     9  C   -0.062389   0.304912   5.062424   0.000000   0.000003   0.000159
    10  H    0.000000   0.000001   0.000000   0.461525  -0.003513  -0.003484
    11  H    0.000003  -0.000047   0.000003  -0.003513   0.682849  -0.060742
    12  H    0.000001  -0.000051   0.000159  -0.003484  -0.060742   0.681547
    13  H    0.000052  -0.005551   0.009394  -0.000079   0.006962  -0.007609
    14  H    0.000041  -0.002309  -0.000251  -0.000064  -0.007345   0.007168
    15  H    0.001709  -0.032059   0.004596   0.000001   0.005900  -0.000168
    16  H    0.001112   0.009848  -0.027816   0.000003  -0.000079   0.001470
    17  H   -0.025984   0.010026  -0.038304   0.000000   0.000000   0.000004
    18  H   -0.025830   0.368147  -0.041739   0.000000   0.000002   0.000005
    19  H    0.004783  -0.032783   0.364291   0.000000  -0.000001  -0.000018
              13         14         15         16         17         18
     1  O    0.002939   0.003067   0.000006   0.000000   0.000000   0.000000
     2  C   -0.032109  -0.034467  -0.005183   0.000484  -0.000004  -0.000107
     3  C    0.345729   0.355669  -0.048177   0.000211  -0.000075  -0.000883
     4  C   -0.012822  -0.027326   0.352795  -0.041694   0.001286  -0.053879
     5  C   -0.011385   0.005123  -0.053909   0.372412  -0.050144   0.007647
     6  C    0.001342  -0.000029   0.009617  -0.034261   0.380528   0.012585
     7  O    0.000052   0.000041   0.001709   0.001112  -0.025984  -0.025830
     8  C   -0.005551  -0.002309  -0.032059   0.009848   0.010026   0.368147
     9  C    0.009394  -0.000251   0.004596  -0.027816  -0.038304  -0.041739
    10  H   -0.000079  -0.000064   0.000001   0.000003   0.000000   0.000000
    11  H    0.006962  -0.007345   0.005900  -0.000079   0.000000   0.000002
    12  H   -0.007609   0.007168  -0.000168   0.001470   0.000004   0.000005
    13  H    0.632971  -0.040108   0.006986  -0.000494   0.000016  -0.000145
    14  H   -0.040108   0.636541  -0.002633  -0.000069   0.000003   0.003210
    15  H    0.006986  -0.002633   0.687447   0.000191   0.000613   0.001064
    16  H   -0.000494  -0.000069   0.000191   0.633198  -0.002120  -0.000332
    17  H    0.000016   0.000003   0.000613  -0.002120   0.617788  -0.000314
    18  H   -0.000145   0.003210   0.001064  -0.000332  -0.000314   0.645207
    19  H   -0.000882  -0.000026  -0.000485  -0.002164  -0.002842  -0.001454
              19
     1  O    0.000000
     2  C    0.000033
     3  C    0.000577
     4  C    0.007477
     5  C   -0.029127
     6  C   -0.034325
     7  O    0.004783
     8  C   -0.032783
     9  C    0.364291
    10  H    0.000000
    11  H   -0.000001
    12  H   -0.000018
    13  H   -0.000882
    14  H   -0.000026
    15  H   -0.000485
    16  H   -0.002164
    17  H   -0.002842
    18  H   -0.001454
    19  H    0.627108
 Mulliken charges:
               1
     1  O   -0.420781
     2  C   -0.072430
     3  C   -0.192863
     4  C   -0.013659
     5  C   -0.114827
     6  C    0.075517
     7  O   -0.295322
     8  C    0.056104
     9  C   -0.144679
    10  H    0.285308
    11  H    0.085570
    12  H    0.085499
    13  H    0.104793
    14  H    0.103805
    15  H    0.071690
    16  H    0.090101
    17  H    0.109521
    18  H    0.086815
    19  H    0.099838
 Sum of Mulliken charges =   0.00000
 Mulliken charges with hydrogens summed into heavy atoms:
               1
     1  O   -0.135473
     2  C    0.098639
     3  C    0.015735
     4  C    0.058031
     5  C   -0.024726
     6  C    0.185038
     7  O   -0.295322
     8  C    0.142919
     9  C   -0.044842
 Electronic spatial extent (au):  <R**2>=           1406.9645
 Charge=              0.0000 electrons
 Dipole moment (field-independent basis, Debye):
    X=             -1.0579    Y=              1.8067    Z=             -0.0549  Tot=              2.0944
 Quadrupole moment (field-independent basis, Debye-Ang):
   XX=            -54.5253   YY=            -50.5608   ZZ=            -53.3570
   XY=             -0.0657   XZ=              6.5710   YZ=             -1.2729
 Traceless Quadrupole moment (field-independent basis, Debye-Ang):
   XX=             -1.7109   YY=              2.2535   ZZ=             -0.5426
   XY=             -0.0657   XZ=              6.5710   YZ=             -1.2729
 Octapole moment (field-independent basis, Debye-Ang**2):
  XXX=            -41.5261  YYY=             -2.5579  ZZZ=              2.0768  XYY=             -1.6362
  XXY=             28.5696  XXZ=            -13.1774  XZZ=             -1.9097  YZZ=             -0.2966
  YYZ=              0.7315  XYZ=             -2.3259
 Hexadecapole moment (field-independent basis, Debye-Ang**3):
 XXXX=          -1205.8301 YYYY=           -211.0525 ZZZZ=           -159.4269 XXXY=            -42.7126
 XXXZ=             54.5682 YYYX=             -7.9174 YYYZ=             -2.8711 ZZZX=             -0.3951
 ZZZY=              5.3277 XXYY=           -253.1213 XXZZ=           -258.9817 YYZZ=            -65.8134
 XXYZ=            -11.2380 YYXZ=              0.3707 ZZXY=              0.7338
 N-N= 4.545029648947D+02 E-N=-1.895923275521D+03  KE= 4.200107415528D+02
 Calling FoFJK, ICntrl=      2127 FMM=F ISym2X=0 I1Cent= 0 IOpClX= 0 NMat=1 NMatS=1 NMatT=0.
 ***** Axes restored to original set *****
 -------------------------------------------------------------------
 Center     Atomic                   Forces (Hartrees/Bohr)
 Number     Number              X              Y              Z
 -------------------------------------------------------------------
      1        8           0.000000439    0.000016268   -0.000008898
      2        6          -0.000005947    0.000009761   -0.000012754
      3        6           0.000002166    0.000002819   -0.000009936
      4        6          -0.000009256   -0.000019400   -0.000035848
      5        6          -0.000080529    0.000041936   -0.000018861
      6        6           0.000135061    0.000049060   -0.000011392
      7        8           0.000014387   -0.000023855   -0.000044303
      8        6          -0.000013752   -0.000015962    0.000089877
      9        6          -0.000049414   -0.000038982    0.000039523
     10        1          -0.000016354   -0.000009550   -0.000007618
     11        1          -0.000002275   -0.000008207    0.000016053
     12        1           0.000003270   -0.000007988    0.000004621
     13        1          -0.000004322   -0.000004948   -0.000000305
     14        1          -0.000001727   -0.000014222    0.000004930
     15        1           0.000008606   -0.000014365   -0.000001054
     16        1           0.000014862   -0.000000505    0.000019913
     17        1          -0.000013707   -0.000002710    0.000025749
     18        1           0.000005392    0.000007352   -0.000033403
     19        1           0.000013100    0.000033499   -0.000016294
 -------------------------------------------------------------------
 Cartesian Forces:  Max     0.000135061 RMS     0.000030862

 GradGradGradGradGradGradGradGradGradGradGradGradGradGradGradGradGradGrad
 Berny optimization.
 FormGI is forming the generalized inverse of G from B-inverse, IUseBI=4.
 Internal  Forces:  Max     0.000062492 RMS     0.000012156
 Search for a local minimum.
 Step number   1 out of a maximum of  114
 All quantities printed in internal units (Hartrees-Bohrs-Radians)
 Mixed Optimization -- En-DIIS/RFO-DIIS
 Second derivative matrix not updated -- first step.
 ITU=  0
     Eigenvalues ---    0.00435   0.00443   0.01125   0.01421   0.01431
     Eigenvalues ---    0.01861   0.02703   0.02756   0.03125   0.03550
     Eigenvalues ---    0.03576   0.04880   0.05012   0.05352   0.05452
     Eigenvalues ---    0.05997   0.06370   0.07014   0.07434   0.07668
     Eigenvalues ---    0.08459   0.09980   0.11057   0.12282   0.13629
     Eigenvalues ---    0.14590   0.16000   0.16971   0.18062   0.19801
     Eigenvalues ---    0.21934   0.21945   0.23181   0.24695   0.26275
     Eigenvalues ---    0.28643   0.29888   0.29944   0.33032   0.33405
     Eigenvalues ---    0.33478   0.33977   0.33987   0.34044   0.34971
     Eigenvalues ---    0.35648   0.35777   0.35931   0.36861   0.42505
     Eigenvalues ---    0.55150
 RFO step:  Lambda=-1.05562794D-07 EMin= 4.34967118D-03
 Linear search not attempted -- first point.
 Iteration  1 RMS(Cart)=  0.00018752 RMS(Int)=  0.00000002
 Iteration  2 RMS(Cart)=  0.00000002 RMS(Int)=  0.00000001
 Variable       Old X    -DE/DX   Delta X   Delta X   Delta X     New X
                                 (Linear)    (Quad)   (Total)
    R1        2.68285  -0.00001   0.00000  -0.00002  -0.00002   2.68283
    R2        1.81699  -0.00001   0.00000  -0.00002  -0.00002   1.81697
    R3        2.88075  -0.00002   0.00000  -0.00005  -0.00005   2.88070
    R4        2.08346   0.00001   0.00000   0.00002   0.00002   2.08348
    R5        2.08220   0.00000   0.00000   0.00001   0.00001   2.08221
    R6        2.88187  -0.00002   0.00000  -0.00007  -0.00007   2.88180
    R7        2.07257   0.00000   0.00000  -0.00001  -0.00001   2.07256
    R8        2.07368   0.00000   0.00000  -0.00001  -0.00001   2.07367
    R9        2.89984   0.00002   0.00000   0.00008   0.00008   2.89992
   R10        2.93979  -0.00002   0.00000  -0.00009  -0.00009   2.93970
   R11        2.07352   0.00001   0.00000   0.00004   0.00004   2.07356
   R12        2.90979  -0.00006   0.00000  -0.00022  -0.00022   2.90957
   R13        2.88866  -0.00001   0.00000  -0.00002  -0.00002   2.88864
   R14        2.04635   0.00002   0.00000   0.00006   0.00006   2.04641
   R15        2.69693   0.00003   0.00000   0.00010   0.00010   2.69704
   R16        2.81102  -0.00004   0.00000  -0.00014  -0.00014   2.81088
   R17        2.04432   0.00003   0.00000   0.00007   0.00007   2.04440
   R18        2.75032  -0.00003   0.00000  -0.00009  -0.00009   2.75023
   R19        2.97980   0.00001   0.00000  -0.00001  -0.00001   2.97979
   R20        2.05722   0.00004   0.00000   0.00010   0.00010   2.05732
   R21        2.04190   0.00003   0.00000   0.00008   0.00008   2.04198
    A1        1.88948  -0.00003   0.00000  -0.00017  -0.00017   1.88931
    A2        1.88091  -0.00002   0.00000  -0.00008  -0.00008   1.88082
    A3        1.94143   0.00001   0.00000   0.00003   0.00003   1.94146
    A4        1.93980   0.00000   0.00000   0.00002   0.00002   1.93982
    A5        1.91304   0.00001   0.00000   0.00006   0.00006   1.91310
    A6        1.91860   0.00001   0.00000   0.00009   0.00009   1.91869
    A7        1.87032  -0.00001   0.00000  -0.00011  -0.00011   1.87021
    A8        1.97640   0.00000   0.00000  -0.00003  -0.00003   1.97637
    A9        1.89487   0.00000   0.00000   0.00001   0.00001   1.89488
   A10        1.88532   0.00000   0.00000  -0.00003  -0.00003   1.88529
   A11        1.92537   0.00000   0.00000  -0.00001  -0.00001   1.92535
   A12        1.91263   0.00000   0.00000   0.00000   0.00000   1.91263
   A13        1.86556   0.00000   0.00000   0.00008   0.00008   1.86564
   A14        2.01032   0.00000   0.00000  -0.00002  -0.00002   2.01031
   A15        1.98694   0.00000   0.00000  -0.00004  -0.00004   1.98690
   A16        1.93735  -0.00001   0.00000  -0.00004  -0.00004   1.93731
   A17        1.47560  -0.00001   0.00000  -0.00007  -0.00007   1.47553
   A18        2.03443   0.00001   0.00000   0.00008   0.00008   2.03451
   A19        1.97971   0.00001   0.00000   0.00010   0.00010   1.97981
   A20        1.82203  -0.00001   0.00000  -0.00010  -0.00010   1.82193
   A21        1.60545   0.00000   0.00000   0.00011   0.00011   1.60556
   A22        2.25542   0.00000   0.00000  -0.00003  -0.00003   2.25539
   A23        2.13401   0.00001   0.00000   0.00005   0.00005   2.13405
   A24        2.23465   0.00000   0.00000   0.00003   0.00003   2.23467
   A25        1.88715   0.00000   0.00000   0.00002   0.00002   1.88717
   A26        2.18499  -0.00001   0.00000  -0.00009  -0.00009   2.18489
   A27        1.67513   0.00001   0.00000   0.00006   0.00006   1.67519
   A28        2.08212   0.00000   0.00000  -0.00002  -0.00002   2.08210
   A29        2.31898  -0.00001   0.00000   0.00004   0.00004   2.31902
   A30        1.50740  -0.00002   0.00000  -0.00010  -0.00010   1.50730
   A31        1.81170  -0.00001   0.00000  -0.00015  -0.00015   1.81154
   A32        1.56008   0.00001   0.00000   0.00016   0.00016   1.56024
   A33        2.14519   0.00000   0.00000  -0.00005  -0.00005   2.14514
   A34        1.58976   0.00001   0.00000   0.00008   0.00008   1.58983
   A35        1.98727   0.00000   0.00000   0.00002   0.00002   1.98729
   A36        2.25316  -0.00001   0.00000  -0.00004  -0.00004   2.25312
   A37        1.46646  -0.00001   0.00000  -0.00006  -0.00006   1.46640
   A38        2.33520   0.00001   0.00000   0.00007   0.00007   2.33527
   A39        1.39783  -0.00001   0.00000  -0.00005  -0.00005   1.39779
   A40        2.34183   0.00002   0.00000   0.00017   0.00017   2.34200
   A41        2.36137  -0.00001   0.00000  -0.00007  -0.00007   2.36130
    D1        3.13989   0.00001   0.00000   0.00032   0.00032   3.14021
    D2       -1.04588   0.00001   0.00000   0.00035   0.00035  -1.04553
    D3        1.03663   0.00000   0.00000   0.00025   0.00025   1.03688
    D4        3.10560   0.00000   0.00000  -0.00007  -0.00007   3.10553
    D5       -1.03297   0.00000   0.00000  -0.00011  -0.00011  -1.03307
    D6        0.98405   0.00000   0.00000  -0.00002  -0.00002   0.98402
    D7        0.99038   0.00000   0.00000  -0.00010  -0.00010   0.99029
    D8        3.13500   0.00000   0.00000  -0.00013  -0.00013   3.13487
    D9       -1.13117   0.00000   0.00000  -0.00005  -0.00005  -1.13122
   D10       -1.06104   0.00000   0.00000  -0.00005  -0.00005  -1.06109
   D11        1.08357   0.00000   0.00000  -0.00008  -0.00008   1.08349
   D12        3.10059   0.00000   0.00000   0.00000   0.00000   3.10059
   D13        1.31338   0.00001   0.00000  -0.00023  -0.00023   1.31315
   D14        2.97727  -0.00001   0.00000  -0.00034  -0.00034   2.97693
   D15       -1.04670   0.00000   0.00000  -0.00028  -0.00028  -1.04698
   D16       -0.81427   0.00001   0.00000  -0.00021  -0.00021  -0.81448
   D17        0.84963   0.00000   0.00000  -0.00032  -0.00032   0.84931
   D18        3.10884   0.00000   0.00000  -0.00026  -0.00026   3.10858
   D19       -2.86366   0.00000   0.00000  -0.00029  -0.00029  -2.86396
   D20       -1.19976  -0.00001   0.00000  -0.00041  -0.00041  -1.20018
   D21        1.05945   0.00000   0.00000  -0.00035  -0.00035   1.05910
   D22        2.56734   0.00000   0.00000   0.00012   0.00012   2.56746
   D23        1.56531   0.00000   0.00000   0.00008   0.00008   1.56539
   D24       -0.97422   0.00000   0.00000  -0.00010  -0.00010  -0.97432
   D25        0.58085   0.00000   0.00000   0.00020   0.00020   0.58105
   D26       -0.42118   0.00000   0.00000   0.00016   0.00016  -0.42101
   D27       -2.96071   0.00000   0.00000  -0.00002  -0.00002  -2.96073
   D28       -1.40017   0.00000   0.00000   0.00012   0.00012  -1.40006
   D29       -2.40220   0.00000   0.00000   0.00008   0.00008  -2.40212
   D30        1.34145   0.00000   0.00000  -0.00010  -0.00010   1.34135
   D31        3.09287  -0.00001   0.00000  -0.00022  -0.00022   3.09265
   D32       -1.60262   0.00000   0.00000  -0.00011  -0.00011  -1.60273
   D33        0.80763   0.00000   0.00000  -0.00004  -0.00004   0.80759
   D34       -1.18041  -0.00002   0.00000  -0.00028  -0.00028  -1.18069
   D35        0.40728  -0.00001   0.00000  -0.00016  -0.00016   0.40712
   D36        2.81754  -0.00001   0.00000  -0.00010  -0.00010   2.81744
   D37        0.85516  -0.00001   0.00000  -0.00021  -0.00021   0.85495
   D38        2.44285   0.00000   0.00000  -0.00009  -0.00009   2.44276
   D39       -1.43008   0.00000   0.00000  -0.00003  -0.00003  -1.43011
   D40        0.05995   0.00000   0.00000  -0.00012  -0.00012   0.05983
   D41        2.66772  -0.00001   0.00000  -0.00030  -0.00030   2.66742
   D42       -2.71686   0.00001   0.00000   0.00010   0.00010  -2.71676
   D43       -0.10909   0.00000   0.00000  -0.00008  -0.00008  -0.10917
   D44        0.41557  -0.00001   0.00000  -0.00017  -0.00017   0.41540
   D45       -2.25189   0.00000   0.00000   0.00000   0.00000  -2.25189
   D46        2.96638  -0.00001   0.00000  -0.00002  -0.00002   2.96635
   D47        0.29892   0.00000   0.00000   0.00015   0.00015   0.29907
   D48       -0.71113  -0.00001   0.00000  -0.00005  -0.00005  -0.71118
   D49        0.35368   0.00001   0.00000   0.00003   0.00003   0.35371
   D50        2.92750   0.00000   0.00000   0.00014   0.00014   2.92764
   D51       -0.32981   0.00000   0.00000  -0.00002  -0.00002  -0.32983
   D52        2.23145   0.00000   0.00000  -0.00003  -0.00003   2.23142
   D53       -2.77708   0.00000   0.00000  -0.00012  -0.00012  -2.77721
   D54       -0.21582   0.00000   0.00000  -0.00013  -0.00013  -0.21595
   D55        1.23340   0.00002   0.00000   0.00017   0.00017   1.23357
   D56       -0.33103   0.00000   0.00000  -0.00001  -0.00001  -0.33104
   D57       -2.67454   0.00000   0.00000  -0.00002  -0.00002  -2.67456
   D58       -0.40935   0.00000   0.00000   0.00015   0.00015  -0.40920
   D59       -1.49013   0.00001   0.00000   0.00019   0.00019  -1.48994
   D60        2.24467   0.00000   0.00000   0.00004   0.00004   2.24471
   D61        1.40220   0.00000   0.00000  -0.00001  -0.00001   1.40219
   D62        0.32142   0.00001   0.00000   0.00004   0.00004   0.32146
   D63       -2.22697   0.00000   0.00000  -0.00011  -0.00011  -2.22708
   D64       -2.74359   0.00000   0.00000   0.00007   0.00007  -2.74352
   D65        2.45881   0.00001   0.00000   0.00012   0.00012   2.45892
   D66       -0.08958   0.00000   0.00000  -0.00004  -0.00004  -0.08961
         Item               Value     Threshold  Converged?
 Maximum Force            0.000062     0.000450     YES
 RMS     Force            0.000012     0.000300     YES
 Maximum Displacement     0.000800     0.001800     YES
 RMS     Displacement     0.000188     0.001200     YES
 Predicted change in Energy=-5.277947D-08
 Optimization completed.
    -- Stationary point found.
                           ----------------------------
                           !   Optimized Parameters   !
                           ! (Angstroms and Degrees)  !
 --------------------------                            --------------------------
 ! Name  Definition              Value          Derivative Info.                !
 --------------------------------------------------------------------------------
 ! R1    R(1,2)                  1.4197         -DE/DX =    0.0                 !
 ! R2    R(1,10)                 0.9615         -DE/DX =    0.0                 !
 ! R3    R(2,3)                  1.5244         -DE/DX =    0.0                 !
 ! R4    R(2,11)                 1.1025         -DE/DX =    0.0                 !
 ! R5    R(2,12)                 1.1019         -DE/DX =    0.0                 !
 ! R6    R(3,4)                  1.525          -DE/DX =    0.0                 !
 ! R7    R(3,13)                 1.0968         -DE/DX =    0.0                 !
 ! R8    R(3,14)                 1.0973         -DE/DX =    0.0                 !
 ! R9    R(4,5)                  1.5345         -DE/DX =    0.0                 !
 ! R10   R(4,8)                  1.5557         -DE/DX =    0.0                 !
 ! R11   R(4,15)                 1.0973         -DE/DX =    0.0                 !
 ! R12   R(5,6)                  1.5398         -DE/DX =   -0.0001              !
 ! R13   R(5,9)                  1.5286         -DE/DX =    0.0                 !
 ! R14   R(5,16)                 1.0829         -DE/DX =    0.0                 !
 ! R15   R(6,7)                  1.4272         -DE/DX =    0.0                 !
 ! R16   R(6,9)                  1.4875         -DE/DX =    0.0                 !
 ! R17   R(6,17)                 1.0818         -DE/DX =    0.0                 !
 ! R18   R(7,8)                  1.4554         -DE/DX =    0.0                 !
 ! R19   R(8,9)                  1.5768         -DE/DX =    0.0                 !
 ! R20   R(8,18)                 1.0886         -DE/DX =    0.0                 !
 ! R21   R(9,19)                 1.0805         -DE/DX =    0.0                 !
 ! A1    A(2,1,10)             108.259          -DE/DX =    0.0                 !
 ! A2    A(1,2,3)              107.7679         -DE/DX =    0.0                 !
 ! A3    A(1,2,11)             111.2355         -DE/DX =    0.0                 !
 ! A4    A(1,2,12)             111.1425         -DE/DX =    0.0                 !
 ! A5    A(3,2,11)             109.6092         -DE/DX =    0.0                 !
 ! A6    A(3,2,12)             109.9277         -DE/DX =    0.0                 !
 ! A7    A(11,2,12)            107.1612         -DE/DX =    0.0                 !
 ! A8    A(2,3,4)              113.2393         -DE/DX =    0.0                 !
 ! A9    A(2,3,13)             108.5683         -DE/DX =    0.0                 !
 ! A10   A(2,3,14)             108.0209         -DE/DX =    0.0                 !
 ! A11   A(4,3,13)             110.3155         -DE/DX =    0.0                 !
 ! A12   A(4,3,14)             109.5856         -DE/DX =    0.0                 !
 ! A13   A(13,3,14)            106.8888         -DE/DX =    0.0                 !
 ! A14   A(3,4,5)              115.1831         -DE/DX =    0.0                 !
 ! A15   A(3,4,8)              113.8432         -DE/DX =    0.0                 !
 ! A16   A(3,4,15)             111.002          -DE/DX =    0.0                 !
 ! A17   A(5,4,8)               84.5455         -DE/DX =    0.0                 !
 ! A18   A(5,4,15)             116.5642         -DE/DX =    0.0                 !
 ! A19   A(8,4,15)             113.4289         -DE/DX =    0.0                 !
 ! A20   A(4,5,6)              104.3946         -DE/DX =    0.0                 !
 ! A21   A(4,5,9)               91.9854         -DE/DX =    0.0                 !
 ! A22   A(4,5,16)             129.2262         -DE/DX =    0.0                 !
 ! A23   A(6,5,16)             122.2697         -DE/DX =    0.0                 !
 ! A24   A(9,5,16)             128.0358         -DE/DX =    0.0                 !
 ! A25   A(5,6,7)              108.1259         -DE/DX =    0.0                 !
 ! A26   A(5,6,17)             125.1905         -DE/DX =    0.0                 !
 ! A27   A(7,6,9)               95.9777         -DE/DX =    0.0                 !
 ! A28   A(7,6,17)             119.2968         -DE/DX =    0.0                 !
 ! A29   A(9,6,17)             132.8677         -DE/DX =    0.0                 !
 ! A30   A(6,7,8)               86.3678         -DE/DX =    0.0                 !
 ! A31   A(4,8,7)              103.8027         -DE/DX =    0.0                 !
 ! A32   A(4,8,9)               89.3861         -DE/DX =    0.0                 !
 ! A33   A(4,8,18)             122.9103         -DE/DX =    0.0                 !
 ! A34   A(7,8,9)               91.0865         -DE/DX =    0.0                 !
 ! A35   A(7,8,18)             113.8624         -DE/DX =    0.0                 !
 ! A36   A(9,8,18)             129.0963         -DE/DX =    0.0                 !
 ! A37   A(5,9,8)               84.0222         -DE/DX =    0.0                 !
 ! A38   A(5,9,19)             133.7971         -DE/DX =    0.0                 !
 ! A39   A(6,9,8)               80.09           -DE/DX =    0.0                 !
 ! A40   A(6,9,19)             134.1767         -DE/DX =    0.0                 !
 ! A41   A(8,9,19)             135.2967         -DE/DX =    0.0                 !
 ! D1    D(10,1,2,3)           179.9027         -DE/DX =    0.0                 !
 ! D2    D(10,1,2,11)          -59.9246         -DE/DX =    0.0                 !
 ! D3    D(10,1,2,12)           59.3947         -DE/DX =    0.0                 !
 ! D4    D(1,2,3,4)            177.9379         -DE/DX =    0.0                 !
 ! D5    D(1,2,3,13)           -59.1847         -DE/DX =    0.0                 !
 ! D6    D(1,2,3,14)            56.3819         -DE/DX =    0.0                 !
 ! D7    D(11,2,3,4)            56.7447         -DE/DX =    0.0                 !
 ! D8    D(11,2,3,13)          179.6221         -DE/DX =    0.0                 !
 ! D9    D(11,2,3,14)          -64.8113         -DE/DX =    0.0                 !
 ! D10   D(12,2,3,4)           -60.7934         -DE/DX =    0.0                 !
 ! D11   D(12,2,3,13)           62.084          -DE/DX =    0.0                 !
 ! D12   D(12,2,3,14)          177.6506         -DE/DX =    0.0                 !
 ! D13   D(2,3,4,5)             75.2509         -DE/DX =    0.0                 !
 ! D14   D(2,3,4,8)            170.5853         -DE/DX =    0.0                 !
 ! D15   D(2,3,4,15)           -59.9716         -DE/DX =    0.0                 !
 ! D16   D(13,3,4,5)           -46.6543         -DE/DX =    0.0                 !
 ! D17   D(13,3,4,8)            48.6801         -DE/DX =    0.0                 !
 ! D18   D(13,3,4,15)          178.1232         -DE/DX =    0.0                 !
 ! D19   D(14,3,4,5)          -164.0758         -DE/DX =    0.0                 !
 ! D20   D(14,3,4,8)           -68.7414         -DE/DX =    0.0                 !
 ! D21   D(14,3,4,15)           60.7017         -DE/DX =    0.0                 !
 ! D22   D(3,4,5,6)            147.098          -DE/DX =    0.0                 !
 ! D23   D(3,4,5,9)             89.6858         -DE/DX =    0.0                 !
 ! D24   D(3,4,5,16)           -55.8185         -DE/DX =    0.0                 !
 ! D25   D(8,4,5,6)             33.2805         -DE/DX =    0.0                 !
 ! D26   D(8,4,5,9)            -24.1317         -DE/DX =    0.0                 !
 ! D27   D(8,4,5,16)          -169.636          -DE/DX =    0.0                 !
 ! D28   D(15,4,5,6)           -80.2239         -DE/DX =    0.0                 !
 ! D29   D(15,4,5,9)          -137.6361         -DE/DX =    0.0                 !
 ! D30   D(15,4,5,16)           76.8596         -DE/DX =    0.0                 !
 ! D31   D(3,4,8,7)            177.2086         -DE/DX =    0.0                 !
 ! D32   D(3,4,8,9)            -91.8234         -DE/DX =    0.0                 !
 ! D33   D(3,4,8,18)            46.2741         -DE/DX =    0.0                 !
 ! D34   D(5,4,8,7)            -67.6324         -DE/DX =    0.0                 !
 ! D35   D(5,4,8,9)             23.3356         -DE/DX =    0.0                 !
 ! D36   D(5,4,8,18)           161.433          -DE/DX =    0.0                 !
 ! D37   D(15,4,8,7)            48.9972         -DE/DX =    0.0                 !
 ! D38   D(15,4,8,9)           139.9652         -DE/DX =    0.0                 !
 ! D39   D(15,4,8,18)          -81.9374         -DE/DX =    0.0                 !
 ! D40   D(4,5,6,7)              3.435          -DE/DX =    0.0                 !
 ! D41   D(4,5,6,17)           152.8492         -DE/DX =    0.0                 !
 ! D42   D(16,5,6,7)          -155.6646         -DE/DX =    0.0                 !
 ! D43   D(16,5,6,17)           -6.2504         -DE/DX =    0.0                 !
 ! D44   D(4,5,9,8)             23.8106         -DE/DX =    0.0                 !
 ! D45   D(4,5,9,19)          -129.0235         -DE/DX =    0.0                 !
 ! D46   D(16,5,9,8)           169.9608         -DE/DX =    0.0                 !
 ! D47   D(16,5,9,19)           17.1267         -DE/DX =    0.0                 !
 ! D48   D(5,6,7,8)            -40.7447         -DE/DX =    0.0                 !
 ! D49   D(9,6,7,8)             20.2642         -DE/DX =    0.0                 !
 ! D50   D(17,6,7,8)           167.7333         -DE/DX =    0.0                 !
 ! D51   D(7,6,9,8)            -18.8969         -DE/DX =    0.0                 !
 ! D52   D(7,6,9,19)           127.8526         -DE/DX =    0.0                 !
 ! D53   D(17,6,9,8)          -159.1152         -DE/DX =    0.0                 !
 ! D54   D(17,6,9,19)          -12.3658         -DE/DX =    0.0                 !
 ! D55   D(6,7,8,4)             70.6684         -DE/DX =    0.0                 !
 ! D56   D(6,7,8,9)            -18.9663         -DE/DX =    0.0                 !
 ! D57   D(6,7,8,18)          -153.2398         -DE/DX =    0.0                 !
 ! D58   D(4,8,9,5)            -23.4539         -DE/DX =    0.0                 !
 ! D59   D(4,8,9,6)            -85.3783         -DE/DX =    0.0                 !
 ! D60   D(4,8,9,19)           128.6101         -DE/DX =    0.0                 !
 ! D61   D(7,8,9,5)             80.3401         -DE/DX =    0.0                 !
 ! D62   D(7,8,9,6)             18.4157         -DE/DX =    0.0                 !
 ! D63   D(7,8,9,19)          -127.5959         -DE/DX =    0.0                 !
 ! D64   D(18,8,9,5)          -157.1964         -DE/DX =    0.0                 !
 ! D65   D(18,8,9,6)           140.8793         -DE/DX =    0.0                 !
 ! D66   D(18,8,9,19)           -5.1324         -DE/DX =    0.0                 !
 --------------------------------------------------------------------------------
 GradGradGradGradGradGradGradGradGradGradGradGradGradGradGradGradGradGrad

                          Input orientation:                          
 ---------------------------------------------------------------------
 Center     Atomic      Atomic             Coordinates (Angstroms)
 Number     Number       Type             X           Y           Z
 ---------------------------------------------------------------------
      1          8           0        1.482044    0.923297   -0.159444
      2          6           0        0.189868    0.450046    0.189657
      3          6           0       -0.824827    1.183575   -0.679946
      4          6           0       -2.261285    0.730839   -0.440555
      5          6           0       -2.900332    1.244782    0.856466
      6          6           0       -4.389637    1.419212    0.506448
      7          8           0       -4.587491    0.964198   -0.831682
      8          6           0       -3.326471    1.620771   -1.143057
      9          6           0       -3.427649    2.500214    0.161849
     10          1           0        2.128024    0.465920    0.386462
     11          1           0        0.103794   -0.636303    0.022365
     12          1           0       -0.026151    0.633135    1.254499
     13          1           0       -0.729214    2.260451   -0.495374
     14          1           0       -0.556287    1.015114   -1.730505
     15          1           0       -2.377157   -0.339162   -0.654208
     16          1           0       -2.554521    1.142574    1.877544
     17          1           0       -5.207170    1.359039    1.212372
     18          1           0       -3.240118    1.939133   -2.180511
     19          1           0       -3.371254    3.556493    0.382383
 ---------------------------------------------------------------------
                    Distance matrix (angstroms):
                    1          2          3          4          5
     1  O    0.000000
     2  C    1.419703   0.000000
     3  C    2.379144   1.524428   0.000000
     4  C    3.758800   2.546402   1.525021   0.000000
     5  C    4.510061   3.259690   2.583027   1.534529   0.000000
     6  C    5.930092   4.691643   3.764429   2.429106   1.539795
     7  O    6.106786   4.912295   3.772106   2.370373   2.403139
     8  C    4.957397   3.938447   2.581440   1.555670   2.078714
     9  C    5.166719   4.158172   3.035925   2.203175   1.528615
    10  H    0.961508   1.948187   3.220495   4.474391   5.109980
    11  H    2.089254   1.102519   2.160448   2.770735   3.641288
    12  H    2.087602   1.101851   2.164012   2.806881   2.965377
    13  H    2.605858   2.142789   1.096754   2.165631   2.751873
    14  H    2.575161   2.136134   1.097346   2.156804   3.498530
    15  H    4.090480   2.815062   2.174654   1.097259   2.250495
    16  H    4.526728   3.295486   3.087762   2.372571   1.082881
    17  H    6.842320   5.567785   4.776670   3.435846   2.336926
    18  H    5.235976   4.427175   2.942140   2.333567   3.133816
    19  H    5.548135   4.729561   3.639172   3.145406   2.406352
                    6          7          8          9         10
     6  C    0.000000
     7  O    1.427156   0.000000
     8  C    1.972768   1.455408   0.000000
     9  C    1.487526   2.166028   1.576844   0.000000
    10  H    6.588101   6.843267   5.781404   5.920668   0.000000
    11  H    4.964917   5.029826   4.268408   4.725281   2.333447
    12  H    4.496389   5.026687   4.197120   4.031137   2.328501
    13  H    3.887162   4.084075   2.752168   2.787648   3.487376
    14  H    4.456661   4.130506   2.895831   3.745830   3.462469
    15  H    2.913602   2.572124   2.231929   3.135528   4.693379
    16  H    2.307398   3.391856   3.154141   2.355663   4.960587
    17  H    1.081808   2.172109   3.025488   2.360629   7.435379
    18  H    2.968410   2.141320   1.088633   2.415911   6.129980
    19  H    2.370753   3.110173   2.464953   1.080529   6.308227
                   11         12         13         14         15
    11  H    0.000000
    12  H    1.773841   0.000000
    13  H    3.058290   2.490886   0.000000
    14  H    2.497086   3.055683   1.762475   0.000000
    15  H    2.588660   3.180527   3.082034   2.511583   0.000000
    16  H    3.697665   2.653370   3.195642   4.126403   2.938837
    17  H    5.796882   5.231794   4.876579   5.514483   3.791699
    18  H    4.761016   4.882060   3.040982   2.873893   2.874879
    19  H    5.457574   4.527287   3.070921   4.341306   4.151973
                   16         17         18         19
    16  H    0.000000
    17  H    2.743329   0.000000
    18  H    4.191939   3.964525   0.000000
    19  H    2.954583   2.981321   3.033394   0.000000
 Stoichiometry    C7H10O2
 Framework group  C1[X(C7H10O2)]
 Deg. of freedom    51
 Full point group                 C1      NOp   1
 Largest Abelian subgroup         C1      NOp   1
 Largest concise Abelian subgroup C1      NOp   1
                         Standard orientation:                         
 ---------------------------------------------------------------------
 Center     Atomic      Atomic             Coordinates (Angstroms)
 Number     Number       Type             X           Y           Z
 ---------------------------------------------------------------------
      1          8           0       -3.574833   -0.023157    0.273875
      2          6           0       -2.374838    0.268510   -0.426482
      3          6           0       -1.246925   -0.512910    0.237654
      4          6           0        0.100567   -0.328045   -0.452114
      5          6           0        0.788642    1.018431   -0.190703
      6          6           0        2.292722    0.689084   -0.206232
      7          8           0        2.441406   -0.692349   -0.532286
      8          6           0        1.299279   -0.925692    0.339098
      9          6           0        1.510806    0.470768    1.040235
     10          1           0       -4.291313    0.467754   -0.138630
     11          1           0       -2.451115   -0.021481   -1.487442
     12          1           0       -2.151062    1.347061   -0.399521
     13          1           0       -1.181788   -0.206820    1.288813
     14          1           0       -1.520636   -1.575553    0.231426
     15          1           0        0.056967   -0.662263   -1.496324
     16          1           0        0.414732    2.021570   -0.353603
     17          1           0        3.080148    1.382759   -0.469073
     18          1           0        1.278957   -1.920060    0.781750
     19          1           0        1.611007    0.810202    2.061159
 ---------------------------------------------------------------------
 Rotational constants (GHZ):      5.1865875      0.8578607      0.8273127
 1\1\GINC-ALCHEMY-FE\FOpt\RB3LYP\6-31G(2df,p)\C7H10O2\PUCK\28-Jan-2020\
 0\\# b3lyp 6-31G(2df,p) opt Freq\\titel\\0,1\O,1.4820444504,0.92329669
 46,-0.1594441028\C,0.1898681966,0.4500458737,0.1896567363\C,-0.8248272
 375,1.1835751935,-0.6799457176\C,-2.2612851073,0.7308392417,-0.4405546
 107\C,-2.9003317774,1.2447823099,0.8564658765\C,-4.3896374096,1.419211
 9823,0.5064477505\O,-4.5874906746,0.9641982246,-0.8316820554\C,-3.3264
 71201,1.6207706165,-1.1430570473\C,-3.4276494244,2.5002136973,0.161848
 7192\H,2.1280244718,0.4659199347,0.3864624783\H,0.1037936682,-0.636302
 9788,0.0223650032\H,-0.0261505381,0.6331347069,1.2544990937\H,-0.72921
 41756,2.2604510039,-0.4953735543\H,-0.5562868321,1.0151143349,-1.73050
 48117\H,-2.377156801,-0.339162246,-0.6542076822\H,-2.5545212745,1.1425
 742215,1.8775435889\H,-5.2071696421,1.3590389518,1.2123721594\H,-3.240
 1175875,1.9391327502,-2.1805107081\H,-3.3712540046,3.5564931868,0.3823
 831041\\Version=ES64L-G09RevD.01\State=1-A\HF=-423.101674\RMSD=4.118e-
 09\RMSF=3.086e-05\Dipole=0.4087939,-0.003149,0.7154275\Quadrupole=-2.7
 192778,0.8395447,1.879733,-4.5112622,0.4252703,-0.8424965\PG=C01 [X(C7
 H10O2)]\\@


 IF YOU GET CONFUSED, LOGIC OUT YOUR DILEMMA

           --  PICKER X-RAY CORP.    DIGITAL PRINTER MANUAL CA. 1964
 Job cpu time:       0 days  0 hours  6 minutes 42.8 seconds.
 File lengths (MBytes):  RWF=     52 Int=      0 D2E=      0 Chk=      7 Scr=      1
 Normal termination of Gaussian 09 at Tue Jan 28 14:10:46 2020.
 Link1:  Proceeding to internal job step number  2.
 ----------------------------------------------------------------------
 #N Geom=AllCheck Guess=TCheck SCRF=Check GenChk RB3LYP/6-31G(2df,p) Fr
 eq
 ----------------------------------------------------------------------
 1/10=4,29=7,30=1,38=1,40=1/1,3;
 2/12=2,40=1/2;
 3/5=1,6=6,7=104,11=2,14=-4,16=1,25=1,30=1,70=2,71=2,74=-5,116=1,140=1/1,2,3;
 4/5=101/1;
 5/5=2,98=1/2;
 8/6=4,10=90,11=11/1;
 11/6=1,8=1,9=11,15=111,16=1/1,2,10;
 10/6=1/2;
 6/7=2,8=2,9=2,10=2,18=1,28=1/1;
 7/8=1,10=1,25=1/1,2,3,16;
 1/10=4,30=1/3;
 99//99;
 Structure from the checkpoint file:  "/scratch/puck/g09_bcf8e418-c2c1-48a3-b6f7-0fbb5ade0529/Gau-144539.chk"
 -----
 titel
 -----
 Charge =  0 Multiplicity = 1
 Redundant internal coordinates found in file.
 O,0,1.4820444504,0.9232966946,-0.1594441028
 C,0,0.1898681966,0.4500458737,0.1896567363
 C,0,-0.8248272375,1.1835751935,-0.6799457176
 C,0,-2.2612851073,0.7308392417,-0.4405546107
 C,0,-2.9003317774,1.2447823099,0.8564658765
 C,0,-4.3896374096,1.4192119823,0.5064477505
 O,0,-4.5874906746,0.9641982246,-0.8316820554
 C,0,-3.326471201,1.6207706165,-1.1430570473
 C,0,-3.4276494244,2.5002136973,0.1618487192
 H,0,2.1280244718,0.4659199347,0.3864624783
 H,0,0.1037936682,-0.6363029788,0.0223650032
 H,0,-0.0261505381,0.6331347069,1.2544990937
 H,0,-0.7292141756,2.2604510039,-0.4953735543
 H,0,-0.5562868321,1.0151143349,-1.7305048117
 H,0,-2.377156801,-0.339162246,-0.6542076822
 H,0,-2.5545212745,1.1425742215,1.8775435889
 H,0,-5.2071696421,1.3590389518,1.2123721594
 H,0,-3.2401175875,1.9391327502,-2.1805107081
 H,0,-3.3712540046,3.5564931868,0.3823831041
 Recover connectivity data from disk.

 GradGradGradGradGradGradGradGradGradGradGradGradGradGradGradGradGradGrad
 Berny optimization.
 Initialization pass.
                           ----------------------------
                           !    Initial Parameters    !
                           ! (Angstroms and Degrees)  !
 --------------------------                            --------------------------
 ! Name  Definition              Value          Derivative Info.                !
 --------------------------------------------------------------------------------
 ! R1    R(1,2)                  1.4197         calculate D2E/DX2 analytically  !
 ! R2    R(1,10)                 0.9615         calculate D2E/DX2 analytically  !
 ! R3    R(2,3)                  1.5244         calculate D2E/DX2 analytically  !
 ! R4    R(2,11)                 1.1025         calculate D2E/DX2 analytically  !
 ! R5    R(2,12)                 1.1019         calculate D2E/DX2 analytically  !
 ! R6    R(3,4)                  1.525          calculate D2E/DX2 analytically  !
 ! R7    R(3,13)                 1.0968         calculate D2E/DX2 analytically  !
 ! R8    R(3,14)                 1.0973         calculate D2E/DX2 analytically  !
 ! R9    R(4,5)                  1.5345         calculate D2E/DX2 analytically  !
 ! R10   R(4,8)                  1.5557         calculate D2E/DX2 analytically  !
 ! R11   R(4,15)                 1.0973         calculate D2E/DX2 analytically  !
 ! R12   R(5,6)                  1.5398         calculate D2E/DX2 analytically  !
 ! R13   R(5,9)                  1.5286         calculate D2E/DX2 analytically  !
 ! R14   R(5,16)                 1.0829         calculate D2E/DX2 analytically  !
 ! R15   R(6,7)                  1.4272         calculate D2E/DX2 analytically  !
 ! R16   R(6,9)                  1.4875         calculate D2E/DX2 analytically  !
 ! R17   R(6,17)                 1.0818         calculate D2E/DX2 analytically  !
 ! R18   R(7,8)                  1.4554         calculate D2E/DX2 analytically  !
 ! R19   R(8,9)                  1.5768         calculate D2E/DX2 analytically  !
 ! R20   R(8,18)                 1.0886         calculate D2E/DX2 analytically  !
 ! R21   R(9,19)                 1.0805         calculate D2E/DX2 analytically  !
 ! A1    A(2,1,10)             108.259          calculate D2E/DX2 analytically  !
 ! A2    A(1,2,3)              107.7679         calculate D2E/DX2 analytically  !
 ! A3    A(1,2,11)             111.2355         calculate D2E/DX2 analytically  !
 ! A4    A(1,2,12)             111.1425         calculate D2E/DX2 analytically  !
 ! A5    A(3,2,11)             109.6092         calculate D2E/DX2 analytically  !
 ! A6    A(3,2,12)             109.9277         calculate D2E/DX2 analytically  !
 ! A7    A(11,2,12)            107.1612         calculate D2E/DX2 analytically  !
 ! A8    A(2,3,4)              113.2393         calculate D2E/DX2 analytically  !
 ! A9    A(2,3,13)             108.5683         calculate D2E/DX2 analytically  !
 ! A10   A(2,3,14)             108.0209         calculate D2E/DX2 analytically  !
 ! A11   A(4,3,13)             110.3155         calculate D2E/DX2 analytically  !
 ! A12   A(4,3,14)             109.5856         calculate D2E/DX2 analytically  !
 ! A13   A(13,3,14)            106.8888         calculate D2E/DX2 analytically  !
 ! A14   A(3,4,5)              115.1831         calculate D2E/DX2 analytically  !
 ! A15   A(3,4,8)              113.8432         calculate D2E/DX2 analytically  !
 ! A16   A(3,4,15)             111.002          calculate D2E/DX2 analytically  !
 ! A17   A(5,4,8)               84.5455         calculate D2E/DX2 analytically  !
 ! A18   A(5,4,15)             116.5642         calculate D2E/DX2 analytically  !
 ! A19   A(8,4,15)             113.4289         calculate D2E/DX2 analytically  !
 ! A20   A(4,5,6)              104.3946         calculate D2E/DX2 analytically  !
 ! A21   A(4,5,9)               91.9854         calculate D2E/DX2 analytically  !
 ! A22   A(4,5,16)             129.2262         calculate D2E/DX2 analytically  !
 ! A23   A(6,5,16)             122.2697         calculate D2E/DX2 analytically  !
 ! A24   A(9,5,16)             128.0358         calculate D2E/DX2 analytically  !
 ! A25   A(5,6,7)              108.1259         calculate D2E/DX2 analytically  !
 ! A26   A(5,6,17)             125.1905         calculate D2E/DX2 analytically  !
 ! A27   A(7,6,9)               95.9777         calculate D2E/DX2 analytically  !
 ! A28   A(7,6,17)             119.2968         calculate D2E/DX2 analytically  !
 ! A29   A(9,6,17)             132.8677         calculate D2E/DX2 analytically  !
 ! A30   A(6,7,8)               86.3678         calculate D2E/DX2 analytically  !
 ! A31   A(4,8,7)              103.8027         calculate D2E/DX2 analytically  !
 ! A32   A(4,8,9)               89.3861         calculate D2E/DX2 analytically  !
 ! A33   A(4,8,18)             122.9103         calculate D2E/DX2 analytically  !
 ! A34   A(7,8,9)               91.0865         calculate D2E/DX2 analytically  !
 ! A35   A(7,8,18)             113.8624         calculate D2E/DX2 analytically  !
 ! A36   A(9,8,18)             129.0963         calculate D2E/DX2 analytically  !
 ! A37   A(5,9,8)               84.0222         calculate D2E/DX2 analytically  !
 ! A38   A(5,9,19)             133.7971         calculate D2E/DX2 analytically  !
 ! A39   A(6,9,8)               80.09           calculate D2E/DX2 analytically  !
 ! A40   A(6,9,19)             134.1767         calculate D2E/DX2 analytically  !
 ! A41   A(8,9,19)             135.2967         calculate D2E/DX2 analytically  !
 ! D1    D(10,1,2,3)           179.9027         calculate D2E/DX2 analytically  !
 ! D2    D(10,1,2,11)          -59.9246         calculate D2E/DX2 analytically  !
 ! D3    D(10,1,2,12)           59.3947         calculate D2E/DX2 analytically  !
 ! D4    D(1,2,3,4)            177.9379         calculate D2E/DX2 analytically  !
 ! D5    D(1,2,3,13)           -59.1847         calculate D2E/DX2 analytically  !
 ! D6    D(1,2,3,14)            56.3819         calculate D2E/DX2 analytically  !
 ! D7    D(11,2,3,4)            56.7447         calculate D2E/DX2 analytically  !
 ! D8    D(11,2,3,13)          179.6221         calculate D2E/DX2 analytically  !
 ! D9    D(11,2,3,14)          -64.8113         calculate D2E/DX2 analytically  !
 ! D10   D(12,2,3,4)           -60.7934         calculate D2E/DX2 analytically  !
 ! D11   D(12,2,3,13)           62.084          calculate D2E/DX2 analytically  !
[...]
 ,0.55134410,-0.00233769,0.00214970,-0.00277488,-0.02696285,-0.00567621
 ,0.00221569,-0.17253461,-0.03249695,0.01685691,0.50416709,0.00517279,-
 0.00226741,0.00304126,0.01267773,0.00842582,-0.00758530,-0.03359996,-0
 .09677418,0.00645871,0.00130895,0.60129167,-0.00474628,0.00211652,-0.0
 0281894,-0.01503756,-0.00933654,0.00600605,0.01576334,0.00563322,-0.07
 522411,-0.03348913,0.05749794,0.37509731,0.00010875,-0.00020231,0.0000
 3988,0.00152885,0.00023231,0.00043915,-0.01219663,0.00596713,0.0358217
 1,-0.08234180,0.00832544,0.03150104,0.37968400,-0.00007486,0.00009449,
 -0.00005552,0.00007493,-0.00029379,0.00008079,0.00035618,0.00220513,0.
 00436036,0.01000907,-0.06934999,-0.04650266,-0.10611341,0.28781062,-0.
 00067466,0.00032949,-0.00058775,-0.00029247,-0.00046599,0.00270801,0.0
 0485896,0.00189945,-0.00634155,0.03061247,-0.03816555,-0.14069237,0.12
 179289,-0.02835130,0.69342183,0.00001453,0.00015613,-0.00047044,-0.000
 03873,-0.00025351,0.00117714,-0.00127156,0.00302946,0.00159023,-0.0293
 6485,-0.00681119,0.01084662,-0.15863544,0.04019261,-0.01407080,0.62296
 066,-0.00025531,-0.00006087,0.00000294,0.00000453,-0.00031346,0.000066
 03,-0.00031000,0.00031384,-0.00171738,0.01635129,0.00136435,-0.0043735
 2,-0.00375651,-0.02443359,-0.01334492,0.11148677,0.28516614,-0.0001192
 0,0.00013790,-0.00027557,-0.00108105,-0.00036651,0.00034034,-0.0015879
 2,-0.00076894,-0.00971414,0.01584675,0.00943569,0.01024655,-0.01190834
 ,-0.00745563,-0.06289318,-0.21144996,0.02566694,0.52793489,-0.00229547
 ,0.00061875,-0.00070550,-0.00072222,-0.00259871,0.00224165,-0.00216273
 ,0.00612620,-0.00998584,-0.04949494,-0.01638826,0.00021606,-0.01190495
 ,-0.01264507,-0.02146533,-0.06906289,-0.00430226,-0.00612408,0.2915959
 9,0.00015292,-0.00007130,0.00022065,0.00035202,0.00046212,-0.00026479,
 0.00234510,-0.00090257,0.00281737,0.00916027,0.00966171,-0.00565843,-0
 .00513680,0.00928254,0.00903985,-0.01389141,-0.07980792,-0.04269163,0.
 10384423,0.19148107,0.00005862,-0.00006890,0.00059910,0.00032749,0.000
 47870,-0.00121771,0.00144545,-0.00140196,0.00177308,0.00441751,0.00031
 257,-0.00178709,-0.01789511,-0.00188506,-0.03047526,-0.03837978,-0.071
 06953,-0.17836235,0.03210191,0.08231218,0.31222476,0.00047032,0.000534
 29,-0.00026153,-0.00201194,-0.00174554,0.00065344,-0.02364456,0.009977
 52,-0.01499138,-0.08359346,0.03556699,-0.02676311,0.00754374,0.0061168
 2,-0.03330917,-0.02604336,-0.01178258,0.06898784,-0.13518909,-0.029602
 82,0.02162278,0.35627638,-0.00172353,0.00069052,-0.00068829,-0.0020461
 7,-0.00232799,0.00147857,-0.00378007,0.00693211,-0.00830420,0.02723105
 ,-0.10060094,0.04202057,0.00771685,-0.00054625,0.01452786,-0.00596591,
 0.01218690,0.00470531,-0.04527053,-0.08696944,0.01844248,-0.00061220,0
 .34043508,0.00122547,-0.00011655,0.00044495,0.00112936,0.00073990,-0.0
 0096916,0.00415133,-0.00521991,0.00404731,-0.02355106,0.03130149,-0.07
 851706,-0.01504823,0.01617095,-0.08346557,0.04971804,0.01084600,-0.077
 24702,-0.00635254,0.00430250,-0.06678797,-0.04016502,-0.10548487,0.718
 21686,0.00014495,-0.00009114,0.00007032,-0.00027470,0.00068450,-0.0002
 0505,0.00035543,0.00088680,-0.00188428,-0.00807522,0.04624651,0.012491
 96,-0.03608315,0.03009023,-0.02226341,-0.12169212,-0.07647230,0.023539
 80,-0.02360707,-0.05445940,-0.01227239,-0.03703117,0.01116661,0.010600
 07,0.26788199,0.00003085,0.00022450,-0.00006244,0.00021796,-0.00008352
 ,0.00051125,-0.00199636,0.00150570,0.00233550,0.01791468,-0.05914137,-
 0.01368283,0.07403764,-0.14481063,0.04819154,-0.11379914,-0.13713716,0
 .01214526,-0.03665935,-0.04822681,-0.03274254,0.00088791,-0.07503788,-
 0.02119590,0.06368804,0.77435823,-0.00009298,0.00005547,0.00000507,-0.
 00024243,-0.00009939,0.00020348,-0.00048504,0.00061441,-0.00178175,0.0
 0202070,-0.02155452,-0.00932860,-0.04923047,0.04822435,-0.07087493,0.0
 6018394,0.03924839,-0.03480398,-0.01155208,-0.04865822,-0.02503898,0.0
 0266728,-0.04670772,-0.11258872,-0.00940888,0.06946990,0.32476176,-0.2
 4314746,0.13025080,-0.16184780,-0.02946957,0.02097458,-0.02480235,-0.0
 0698542,-0.00429353,0.00363413,-0.00064614,0.00165346,-0.00150034,0.00
 018400,-0.00004063,-0.00017816,-0.00015057,-0.00001080,-0.00017777,-0.
 00032098,0.00011177,0.00019460,-0.00022741,-0.00045845,0.00020008,0.00
 001501,-0.00001473,-0.00002652,0.27610685,0.16834352,-0.13513517,0.156
 70789,-0.01665681,0.00424293,-0.00824221,-0.00124425,-0.00073604,0.000
 28596,-0.00062069,0.00080739,0.00004126,-0.00001188,-0.00001407,0.0000
 3724,-0.00000401,0.00000992,0.00000433,-0.00006790,-0.00002993,-0.0000
 5246,-0.00015224,-0.00002735,0.00005248,0.00001296,-0.00003135,-0.0000
 1854,-0.14833407,0.13015891,-0.20136590,0.15249535,-0.18263007,0.01430
 572,-0.00408827,0.00387396,0.00059940,-0.00004545,-0.00030801,0.000515
 82,0.00024848,0.00064321,-0.00021640,-0.00003773,0.00011231,-0.0000205
 1,0.00000421,0.00007549,0.00008977,-0.00000881,-0.00006476,0.00005066,
 0.00004025,0.00002180,0.00003582,-0.00003907,-0.00000703,0.18420075,-0
 .14890831,0.17744545,-0.01837084,-0.03973984,0.00001141,-0.04906800,-0
 .00394282,-0.00188778,0.00070274,0.02251921,0.00381315,0.00176046,0.00
 099640,0.00047914,-0.00013558,-0.00006161,-0.00003937,-0.00013290,0.00
 008075,0.00008895,-0.00005509,-0.00002768,-0.00000336,0.00016126,0.000
 01879,0.00002050,-0.00010700,-0.00031819,-0.00003036,0.00199143,-0.000
 85576,0.00052850,0.06223611,-0.01406663,-0.00846920,0.00217009,-0.0061
 8262,-0.27544482,-0.04198315,0.00099969,-0.01722438,-0.00345483,-0.001
 09682,-0.00059627,-0.00041028,0.00025121,0.00014825,0.00009297,0.00005
 411,-0.00008588,-0.00007357,0.00029154,0.00004784,0.00008397,0.0001580
 4,0.00041223,0.00010628,-0.00012120,0.00038149,0.00004341,-0.00029970,
 0.00055951,0.00076823,0.01636201,0.30554311,0.00335255,0.01219697,0.00
 522491,-0.00103218,-0.04460467,-0.06283863,-0.00113254,0.02040772,0.00
 323721,0.00090168,-0.00000752,0.00037139,0.00010658,-0.00001450,-0.000
 25607,-0.00015851,0.00009589,0.00000422,0.00001671,-0.00005868,0.00012
 763,0.00022007,0.00009317,-0.00005362,-0.00012522,-0.00016018,-0.00004
 529,-0.00078523,-0.00059673,-0.00010791,0.00064377,0.04193989,0.060335
 62,-0.02317840,-0.00188527,0.03679044,-0.05412844,0.00838590,0.0320050
 4,0.00426886,-0.00415585,-0.02237217,0.00162162,-0.00045981,0.00001244
 ,-0.00036143,0.00029507,0.00014936,-0.00026240,0.00010950,-0.00012606,
 0.00001706,0.00005727,0.00022621,0.00023532,0.00000970,-0.00000500,-0.
 00007239,-0.00005811,0.00008793,0.00180503,-0.00037424,0.00107484,0.00
 355235,0.00148197,-0.00010795,0.06973070,-0.00711584,0.00499205,0.0154
 1418,0.00796200,-0.06434599,-0.04867144,-0.00133516,0.00317536,0.01719
 409,-0.00055938,0.00010225,-0.00022538,0.00000497,0.00017438,-0.000422
 53,0.00002215,-0.00006895,0.00002332,-0.00006763,-0.00000231,-0.000083
 12,-0.00005197,-0.00009083,0.00008752,-0.00000694,-0.00003226,0.000116
 85,0.00106685,-0.00003127,-0.00037955,0.00433487,-0.00660840,-0.031270
 28,-0.00573444,0.06210025,0.01241808,0.00315617,-0.00367995,0.03366215
 ,-0.04565315,-0.26996019,0.00179070,-0.00443991,-0.01967223,0.00081873
 ,-0.00001491,-0.00061716,0.00001063,-0.00001869,-0.00027046,-0.0004845
 0,0.00001720,-0.00014074,-0.00014059,0.00009377,0.00065277,0.00024673,
 -0.00009332,0.00019882,0.00005277,-0.00004271,0.00007182,0.00033625,0.
 00076782,0.00068773,-0.00028764,-0.00205599,-0.00602178,-0.04610401,0.
 04573192,0.29770371,0.00179527,-0.00109286,0.00038933,0.00033243,0.023
 77739,0.00336674,-0.04911775,-0.02081237,-0.00286694,-0.00316318,-0.03
 242815,-0.00627975,0.00142666,-0.00093812,0.00006815,0.00073165,-0.000
 41998,-0.00050118,0.00013291,0.00049438,0.00023939,0.00054862,-0.00096
 125,-0.00060868,0.00003818,0.00179969,-0.00002716,0.00044314,-0.000197
 89,0.00006994,-0.00301610,0.00197758,-0.00264820,0.00072880,-0.0009469
 8,0.00047040,0.05514141,-0.00034873,0.00205629,-0.00058230,-0.00120198
 ,-0.01970206,-0.00258800,-0.02006981,-0.29005772,-0.04489652,-0.002374
 32,-0.01057729,-0.00200667,0.00108129,-0.00001085,0.00014669,0.0005264
 4,-0.00011091,-0.00022123,-0.00016561,0.00030220,0.00005075,0.00025352
 ,-0.00045839,-0.00001855,-0.00006325,0.00124542,-0.00010609,-0.0001961
 4,0.00036193,-0.00002535,0.00221141,-0.00038403,0.00248665,-0.00030725
 ,0.00104003,0.00022115,0.02296468,0.32001498,0.00137249,-0.00155077,0.
 00050012,0.00069287,0.02264313,0.00255056,-0.00365906,-0.04707349,-0.0
 5810652,0.00001128,0.00490632,-0.00039013,-0.00036037,0.00119005,0.000
 11187,0.00011439,-0.00002573,0.00014993,-0.00018225,0.00006379,-0.0004
 0472,-0.00005448,-0.00071903,0.00038099,0.00036534,-0.00023254,0.00062
 025,0.00037964,0.00004765,-0.00009411,-0.00336003,0.00240151,-0.001427
 59,0.00108473,-0.00014281,0.00112241,0.00568449,0.04795320,0.05950282,
 0.00184632,-0.00023485,0.00116244,0.00369412,-0.00306139,-0.02346304,-
 0.05996127,0.00945103,0.05859322,-0.01010290,0.00710511,0.03007708,-0.
 00630559,-0.00217827,-0.00016772,-0.00042564,0.00016192,0.00301313,0.0
 0069714,-0.00039344,-0.00082292,0.00203836,-0.00011132,0.00117330,0.00
 084754,-0.00079838,0.00007800,0.00046705,-0.00001049,0.00017501,0.0007
 2202,-0.00049112,0.00091234,-0.00323827,0.00211390,-0.00265992,0.00039
 105,-0.00026494,-0.00294525,0.06928886,-0.00107274,0.00030145,-0.00157
 439,-0.00316306,0.00197904,0.01903146,0.01037281,-0.05750741,-0.041955
 98,-0.00323151,0.00116725,0.01074382,-0.00082461,-0.00076443,0.0003309
 6,0.00026583,0.00036993,0.00026551,0.00028520,-0.00026224,0.00012802,0
 .00011141,0.00041259,-0.00116844,-0.00006955,0.00053630,-0.00048672,-0
 .00032923,-0.00013126,0.00004274,-0.00102999,0.00093269,-0.00012531,0.
 00264771,-0.00063917,0.00233129,0.00755180,-0.00479524,-0.03007819,-0.
 01190596,0.05786248,0.00053518,-0.00060332,0.00247216,0.00440802,-0.00
 286108,-0.02371564,0.05692146,-0.04097412,-0.27786137,0.00189830,-0.00
 137797,-0.00397402,0.00077810,0.00104008,0.00108657,-0.00025706,0.0002
 2807,-0.00071868,0.00034300,0.00011187,0.00040056,-0.00034080,-0.00003
 483,0.00080592,-0.00054013,0.00014634,0.00017900,0.00025776,-0.0000202
 3,0.00045397,0.00020149,0.00023442,0.00114615,-0.00301054,0.00265898,-
 0.00107357,0.00117348,-0.00088375,-0.00521095,-0.06332602,0.04231432,0
 .30533161,0.00009095,0.00060359,0.00010331,0.00141598,-0.00197636,0.00
 037562,-0.00433771,-0.03071246,-0.00585271,-0.05140572,-0.02963918,-0.
 00616598,0.00047990,0.01110183,0.00082047,0.00117705,0.00023574,0.0003
 2748,0.00212605,-0.00128959,-0.00100860,0.00069056,0.01657762,0.004513
 04,-0.00145256,0.00528598,0.00273863,-0.00001867,0.00013159,-0.0000555
 6,-0.00038533,0.00093003,-0.00012276,-0.00008000,0.00014665,-0.0001111
 2,-0.00568116,-0.00167070,0.00090599,0.00108609,0.00061749,0.00025795,
 0.05801697,0.00018024,0.00053202,0.00001572,0.00051248,-0.00044334,0.0
 0021858,-0.00082585,-0.00908756,-0.00159727,-0.02723995,-0.28411057,-0
 .04433473,0.00099471,-0.00560297,-0.00056454,0.00039589,-0.00078401,-0
 .00141640,-0.00101786,0.00334254,0.00066391,-0.00428313,-0.01398799,-0
 .00448765,0.00171364,-0.00279559,-0.00161989,-0.00012202,-0.00001843,-
 0.00007319,-0.00049388,0.00082077,-0.00027777,-0.00001366,0.00007935,0
 .00007990,-0.00135944,0.00050576,0.00056350,-0.00025019,0.00028495,0.0
 0044652,0.02958533,0.31183494,0.00010949,0.00020818,-0.00005159,-0.000
 03603,-0.00057963,-0.00011390,0.00109336,0.00504203,0.00117619,-0.0073
 9821,-0.04550663,-0.06450689,-0.00356498,-0.02342332,-0.00092329,-0.00
 137926,0.00120777,0.00018495,0.00234198,-0.00082268,0.00119555,0.00467
 589,0.01424662,0.00372618,0.00020690,-0.00264176,-0.00152515,-0.000058
 33,-0.00005456,-0.00002774,-0.00017706,0.00008392,0.00012225,-0.000033
 17,-0.00002196,0.00003520,0.00126243,0.00040538,0.00101158,-0.00060239
 ,0.00010236,0.00034682,0.00284112,0.05288907,0.05844481,0.00013701,-0.
 00004317,-0.00022937,-0.00020359,0.00010218,0.00036206,0.00103655,-0.0
 0004691,-0.00063090,0.00747764,-0.00540522,0.01064481,-0.07237800,0.01
 659287,-0.08870147,0.00069756,0.00355447,-0.01973428,-0.00162951,0.001
 19738,-0.00689218,-0.00432684,0.00022035,0.00470827,-0.00483221,-0.000
 36493,0.00252159,-0.00005029,0.00002385,0.00000752,0.00004566,-0.00009
 968,-0.00009031,-0.00071028,0.00020377,-0.00007735,-0.00020906,-0.0001
 7550,-0.00001732,-0.00016846,-0.00011829,-0.00006962,-0.00001149,0.000
 17921,-0.00006774,0.07170155,0.00004399,-0.00008225,0.00002668,-0.0000
 5762,0.00018111,-0.00004966,-0.00011392,0.00009147,0.00048395,-0.00800
 796,0.00128347,-0.00391279,0.01643256,-0.04471922,0.01957856,0.0023067
 6,-0.00476335,-0.00605815,-0.00217019,0.00256599,-0.00350527,0.0020704
 3,-0.00267791,0.00175919,0.00596734,0.00703662,0.01951317,0.00001755,0
 .00001917,0.00001327,0.00001901,-0.00010097,-0.00007212,0.00013010,0.0
 0011732,-0.00000080,0.00009820,-0.00003324,0.00013087,0.00008030,0.000
 00558,-0.00005013,-0.00032484,-0.00021312,-0.00069880,-0.01526470,0.03
 766832,-0.00017370,-0.00012767,0.00056592,0.00023614,0.00025119,-0.001
 31864,-0.00057960,-0.00023911,0.00051404,-0.00978926,0.00584622,-0.005
 75056,-0.08919118,0.02347027,-0.31048298,0.00182772,0.00061790,0.00043
 368,0.00101764,-0.00039360,0.00148726,0.00104575,0.00098310,-0.0065937
 7,0.00020344,-0.00320940,-0.00337193,0.00014654,-0.00004723,-0.0000502
 4,-0.00000381,0.00005496,0.00015110,0.00019187,0.00003664,0.00076666,0
 .00020273,0.00015503,-0.00005549,0.00017720,0.00005366,0.00006587,-0.0
 0001415,-0.00025325,-0.00042534,0.09642889,-0.02745608,0.32347240,-0.0
 0017470,0.00001034,-0.00002582,0.00025639,-0.00010017,0.00016021,0.000
 18320,0.00041004,0.00154087,-0.00140496,-0.00234186,-0.00130204,-0.008
 48638,-0.00337839,0.01387452,-0.22280138,-0.01893303,0.14970861,0.0099
 8996,0.00195553,-0.00656088,-0.00178973,-0.00162813,-0.00121756,-0.004
 03277,0.00527614,0.00020134,0.00001044,-0.00000120,-0.00000401,-0.0000
 2382,0.00003460,-0.00000166,0.00001620,-0.00002443,-0.00002790,0.00011
 419,0.00009496,-0.00006720,-0.00058615,0.00003643,0.00004248,-0.000043
 64,0.00031908,-0.00005156,0.00101563,0.00059499,-0.00040483,0.22625341
 ,0.00003868,-0.00001435,0.00001476,-0.00005627,0.00011005,-0.00010059,
 -0.00008449,-0.00049231,-0.00072661,0.00273313,0.00113481,0.00132036,0
 .00645758,-0.00214124,-0.00925098,-0.02204519,-0.04290831,0.00631966,0
 .01102133,0.00080211,-0.00436696,-0.00403164,-0.00207522,-0.00084515,-
 0.01306706,0.00750652,0.01474742,0.00000763,0.00000642,0.00000500,-0.0
 0001637,-0.00001809,-0.00002125,-0.00004598,0.00001189,-0.00000003,0.0
 0011976,0.00016033,0.00000614,0.00035773,0.00017675,-0.00006413,-0.000
 08371,0.00021046,-0.00029360,-0.00087151,0.00063588,0.00023307,0.01763
 608,0.03438679,0.00000081,-0.00000743,0.00001242,0.00009894,0.00001420
 ,0.00004156,0.00001579,0.00032023,0.00119414,-0.00213748,-0.00135520,-
 0.00076995,-0.00649391,0.00069650,0.00888566,0.14317391,0.00410107,-0.
 16929443,0.02039013,0.00452422,-0.01558253,-0.00195526,-0.00214525,-0.
 00613858,0.00025034,0.00035243,-0.00135752,0.00001081,-0.00000157,-0.0
 0000917,-0.00000433,0.00000511,0.00000151,0.00002563,-0.00000929,0.000
 01761,0.00004031,0.00002851,-0.00002735,-0.00045951,-0.00004063,0.0001
 0820,-0.00004656,0.00012062,-0.00010760,0.00101028,0.00056145,0.000169
 13,-0.15567197,-0.00710471,0.18220083,-0.00017838,-0.00001276,0.000025
 59,0.00007888,-0.00001514,0.00014686,0.00258215,-0.00027684,0.00004393
 ,0.00542532,0.00249525,-0.01721242,-0.00343368,0.00280379,-0.00280742,
 -0.00541236,-0.00402775,-0.00075432,-0.00554530,-0.00813365,0.03066513
 ,-0.04725843,-0.00368804,0.00975774,0.00000221,0.00166128,0.00048901,0
 .00000117,0.00000168,-0.00000562,0.00003316,-0.00007535,0.00001590,0.0
 0006163,-0.00002899,0.00013267,-0.00015098,-0.00019008,-0.00001686,-0.
 00023578,0.00000759,0.00076012,-0.00005706,0.00044715,-0.00030636,0.00
 113628,-0.00024278,-0.00140209,0.00049059,0.00021456,0.00172825,0.0518
 0370,0.00014672,-0.00002448,0.00001180,0.00004922,-0.00002047,-0.00020
 890,-0.00105847,0.00043505,0.00027210,-0.00502441,0.00039103,0.0113745
 3,0.00101579,-0.00085402,0.00015881,-0.00205434,-0.00348552,-0.0004383
 6,-0.00027846,-0.00090896,0.01417841,-0.00383110,-0.07756166,0.0691504
 5,0.00172160,0.01139071,-0.00932681,0.00001644,-0.00000029,-0.00000348
 ,-0.00001461,0.00001772,0.00000843,-0.00006449,0.00003201,-0.00007468,
 0.00018444,0.00011165,-0.00011816,0.00033221,-0.00000500,-0.00028773,-
 0.00014057,-0.00035347,0.00020841,-0.00026826,0.00160471,0.00013114,0.
 00043044,0.00140135,0.00011784,0.00910801,0.06754596,-0.00021031,0.000
 01378,0.00001757,-0.00004353,-0.00012339,0.00004526,0.00019386,0.00014
 830,0.00066925,0.00222131,-0.00159737,-0.00530663,-0.00200478,0.001593
 44,-0.00364950,0.00077021,0.00027216,-0.00093501,0.00390596,0.00093776
 ,-0.00003941,0.01771336,0.07532094,-0.30633192,-0.00078895,0.00811636,
 -0.00259798,-0.00000524,-0.00001062,-0.00000899,0.00004229,-0.00004242
 ,0.00004009,0.00009705,-0.00004054,0.00012934,-0.00012935,-0.00015602,
 -0.00019019,-0.00080476,0.00008287,0.00011304,-0.00010930,0.00018467,0
 .00005287,0.00098971,0.00071203,-0.00045165,-0.00023569,0.00060001,-0.
 00022508,-0.02145798,-0.08577215,0.31843711,-0.00006540,-0.00007556,-0
 .00004570,0.00007470,-0.00002848,0.00001668,0.00037300,0.00003714,0.00
 007888,0.00097619,0.00552499,0.00046413,0.00130672,0.00779696,0.011793
 17,0.00971274,-0.01171443,-0.00794841,-0.00256886,-0.00673608,-0.00746
 388,-0.00684859,0.00330462,-0.00024911,-0.03202495,-0.01679099,0.00010
 749,-0.00000762,0.00001783,0.00001426,0.00008946,-0.00010766,0.0000349
 8,-0.00000598,0.00001661,-0.00004607,-0.00048608,-0.00010399,0.0000515
 7,-0.00005450,-0.00015134,-0.00003317,-0.00161024,0.00127825,0.0011439
 1,0.00127183,-0.00157921,0.00008070,0.00101353,0.00171574,0.00002384,0
 .00065687,-0.00027017,-0.00014385,0.02819717,0.00015277,0.00004730,0.0
 0001692,-0.00005974,0.00007846,-0.00001693,-0.00037285,-0.00041598,-0.
 00012569,-0.00052994,-0.00221174,-0.00030439,-0.00647197,-0.00617435,-
 0.00376764,0.00638854,-0.00545115,0.00078649,-0.00055541,-0.00076665,-
 0.00147520,0.00041631,0.00129241,0.00402025,-0.01782739,-0.33688893,-0
 .06345548,0.00000021,-0.00001102,-0.00000832,-0.00004171,0.00006844,-0
 .00001973,-0.00001811,-0.00000572,-0.00000502,0.00018912,0.00033112,0.
 00003456,0.00009815,0.00007574,-0.00002333,0.00062154,-0.00021374,-0.0
 0035080,0.00058407,0.00138043,-0.00010684,-0.00039143,0.00110617,-0.00
 017809,-0.00004792,0.00028367,-0.00023981,0.01786576,0.34747553,0.0000
 8768,-0.00001759,0.00005864,0.00012195,0.00011419,-0.00012461,0.000038
 40,-0.00039758,0.00029243,0.00080287,-0.00188371,-0.00268100,0.0054238
 0,0.01091760,0.00458664,-0.00273139,0.00815649,-0.00498494,-0.00615658
 ,-0.00586710,0.00130009,-0.00004305,-0.00768135,0.01085054,-0.00032845
 ,-0.06725922,-0.06251953,0.00002116,0.00000783,-0.00000588,-0.00003544
 ,0.00003545,-0.00001121,0.00001335,0.00000340,0.00005001,0.00009387,0.
 00003712,-0.00004347,-0.00011022,0.00000265,0.00004436,0.00060313,-0.0
 0055779,0.00138509,-0.00016258,-0.00097536,0.00087455,0.00004307,-0.00
 047243,0.00088115,0.00019788,0.00061836,0.00023182,0.00212056,0.065219
 04,0.04981532\\-0.00000041,-0.00001623,0.00000888,0.00000585,-0.000009
 87,0.00001276,-0.00000214,-0.00000287,0.00000990,0.00000926,0.00001931
 ,0.00003582,0.00008055,-0.00004196,0.00001890,-0.00013510,-0.00004908,
 0.00001139,-0.00001435,0.00002387,0.00004429,0.00001371,0.00001592,-0.
 00008994,0.00004941,0.00003903,-0.00003951,0.00001638,0.00000954,0.000
 00763,0.00000229,0.00000827,-0.00001605,-0.00000325,0.00000800,-0.0000
 0462,0.00000432,0.00000501,0.00000032,0.00000172,0.00001423,-0.0000049
 1,-0.00000860,0.00001442,0.00000107,-0.00001486,0.00000051,-0.00001990
 ,0.00001370,0.00000271,-0.00002574,-0.00000539,-0.00000735,0.00003341,
 -0.00001310,-0.00003346,0.00001630\\\@


 "A LITTLE BIT GOES A LONG WAY"
 R.S. MULLIKEN AS QUOTED BY K. RUEDENBERG
 Job cpu time:       0 days  0 hours 44 minutes 51.8 seconds.
 File lengths (MBytes):  RWF=    152 Int=      0 D2E=      0 Chk=      8 Scr=      1
 Normal termination of Gaussian 09 at Tue Jan 28 14:55:36 2020.
