 Entering Gaussian System, Link 0=/home/puck/opt/gaussian_09/g09
 Input=dsC7O2H10nsd_2404.com
 Output=dsC7O2H10nsd_2404.log
 Initial command:
 /home/puck/opt/gaussian_09/l1.exe "/scratch/puck/g09_1581501a-a539-46b4-b91a-faa5dea30293/Gau-54707.inp" -scrdir="/scratch/puck/g09_1581501a-a539-46b4-b91a-faa5dea30293/"
 Entering Link 1 = /home/puck/opt/gaussian_09/l1.exe PID=     54708.
  
 Copyright (c) 1988,1990,1992,1993,1995,1998,2003,2009,2013,
            Gaussian, Inc.  All Rights Reserved.
  
 This is part of the Gaussian(R) 09 program.  It is based on
 the Gaussian(R) 03 system (copyright 2003, Gaussian, Inc.),
 the Gaussian(R) 98 system (copyright 1998, Gaussian, Inc.),
 the Gaussian(R) 94 system (copyright 1995, Gaussian, Inc.),
 the Gaussian 92(TM) system (copyright 1992, Gaussian, Inc.),
 the Gaussian 90(TM) system (copyright 1990, Gaussian, Inc.),
 the Gaussian 88(TM) system (copyright 1988, Gaussian, Inc.),
 the Gaussian 86(TM) system (copyright 1986, Carnegie Mellon
 University), and the Gaussian 82(TM) system (copyright 1983,
 Carnegie Mellon University). Gaussian is a federally registered
 trademark of Gaussian, Inc.
  
 This software contains proprietary and confidential information,
 including trade secrets, belonging to Gaussian, Inc.
  
 This software is provided under written license and may be
 used, copied, transmitted, or stored only in accord with that
 written license.
  
 The following legend is applicable only to US Government
 contracts under FAR:
  
                    RESTRICTED RIGHTS LEGEND
  
 Use, reproduction and disclosure by the US Government is
 subject to restrictions as set forth in subparagraphs (a)
 and (c) of the Commercial Computer Software - Restricted
 Rights clause in FAR 52.227-19.
  
 Gaussian, Inc.
 340 Quinnipiac St., Bldg. 40, Wallingford CT 06492
  
  
 ---------------------------------------------------------------
 Warning -- This program may not be used in any manner that
 competes with the business of Gaussian, Inc. or will provide
 assistance to any competitor of Gaussian, Inc.  The licensee
 of this program is prohibited from giving any competitor of
 Gaussian, Inc. access to this program.  By using this program,
 the user acknowledges that Gaussian, Inc. is engaged in the
 business of creating and licensing software in the field of
 computational chemistry and represents and warrants to the
 licensee that it is not a competitor of Gaussian, Inc. and that
 it will not use this program in any manner prohibited above.
 ---------------------------------------------------------------
  

 Cite this work as:
 Gaussian 09, Revision D.01,
 M. J. Frisch, G. W. Trucks, H. B. Schlegel, G. E. Scuseria, 
 M. A. Robb, J. R. Cheeseman, G. Scalmani, V. Barone, B. Mennucci, 
 G. A. Petersson, H. Nakatsuji, M. Caricato, X. Li, H. P. Hratchian, 
 A. F. Izmaylov, J. Bloino, G. Zheng, J. L. Sonnenberg, M. Hada, 
 M. Ehara, K. Toyota, R. Fukuda, J. Hasegawa, M. Ishida, T. Nakajima, 
 Y. Honda, O. Kitao, H. Nakai, T. Vreven, J. A. Montgomery, Jr., 
 J. E. Peralta, F. Ogliaro, M. Bearpark, J. J. Heyd, E. Brothers, 
 K. N. Kudin, V. N. Staroverov, T. Keith, R. Kobayashi, J. Normand, 
 K. Raghavachari, A. Rendell, J. C. Burant, S. S. Iyengar, J. Tomasi, 
 M. Cossi, N. Rega, J. M. Millam, M. Klene, J. E. Knox, J. B. Cross, 
 V. Bakken, C. Adamo, J. Jaramillo, R. Gomperts, R. E. Stratmann, 
 O. Yazyev, A. J. Austin, R. Cammi, C. Pomelli, J. W. Ochterski, 
 R. L. Martin, K. Morokuma, V. G. Zakrzewski, G. A. Voth, 
 P. Salvador, J. J. Dannenberg, S. Dapprich, A. D. Daniels, 
 O. Farkas, J. B. Foresman, J. V. Ortiz, J. Cioslowski, 
 and D. J. Fox, Gaussian, Inc., Wallingford CT, 2013.
 
 ******************************************
 Gaussian 09:  ES64L-G09RevD.01 24-Apr-2013
                27-Jan-2020 
 ******************************************
 -----------------------------
 # b3lyp 6-31G(2df,p) opt Freq
 -----------------------------
 1/14=-1,18=20,19=15,26=3,38=1/1,3;
 2/9=110,12=2,17=6,18=5,40=1/2;
 3/5=1,6=6,7=104,11=2,16=1,25=1,30=1,71=1,74=-5/1,2,3;
 4//1;
 5/5=2,38=5/2;
 6/7=2,8=2,9=2,10=2,28=1/1;
 7//1,2,3,16;
 1/14=-1,18=20,19=15,26=3/3(2);
 2/9=110/2;
 99//99;
 2/9=110/2;
 3/5=1,6=6,7=104,11=2,16=1,25=1,30=1,71=1,74=-5/1,2,3;
 4/5=5,16=3,69=1/1;
 5/5=2,38=5/2;
 7//1,2,3,16;
 1/14=-1,18=20,19=15,26=3/3(-5);
 2/9=110/2;
 6/7=2,8=2,9=2,10=2,19=2,28=1/1;
 99/9=1/99;
 -----
 titel
 -----
 Symbolic Z-matrix:
 Charge =  0 Multiplicity = 1
 C                     0.14454  -1.20105  -3.2056 
 C                    -0.16566  -0.56828  -1.86884 
 C                    -0.58503   0.92124  -1.8477 
 O                    -1.77059   0.63285  -1.06259 
 C                    -1.47248  -0.7695   -1.03928 
 C                    -0.66135  -1.18742   0.21315 
 C                     0.65507  -1.03182  -0.62914 
 C                     1.75119  -0.17127  -0.06723 
 O                     2.27714   0.75059  -0.64039 
 H                     0.19525  -2.29316  -3.13119 
 H                    -0.61823  -0.94985  -3.95023 
 H                     1.11131  -0.84869  -3.58369 
 H                     0.08899   1.6258   -1.35514 
 H                    -0.85399   1.3116   -2.83758 
 H                    -2.32119  -1.39226  -1.33678 
 H                    -0.77964  -0.48456   1.04117 
 H                    -0.8449   -2.2022    0.57249 
 H                     1.10291  -2.01929  -0.80442 
 H                     2.06521  -0.45518   0.96515 
 

 GradGradGradGradGradGradGradGradGradGradGradGradGradGradGradGradGradGrad
 Berny optimization.
 Initialization pass.
                           ----------------------------
                           !    Initial Parameters    !
                           ! (Angstroms and Degrees)  !
 --------------------------                            --------------------------
 ! Name  Definition              Value          Derivative Info.                !
 --------------------------------------------------------------------------------
 ! R1    R(1,2)                  1.5111         estimate D2E/DX2                !
 ! R2    R(1,10)                 1.0958         estimate D2E/DX2                !
 ! R3    R(1,11)                 1.0952         estimate D2E/DX2                !
 ! R4    R(1,12)                 1.0962         estimate D2E/DX2                !
 ! R5    R(2,3)                  1.5476         estimate D2E/DX2                !
 ! R6    R(2,5)                  1.5609         estimate D2E/DX2                !
 ! R7    R(2,7)                  1.5573         estimate D2E/DX2                !
 ! R8    R(3,4)                  1.4509         estimate D2E/DX2                !
 ! R9    R(3,13)                 1.0924         estimate D2E/DX2                !
 ! R10   R(3,14)                 1.0975         estimate D2E/DX2                !
 ! R11   R(4,5)                  1.4339         estimate D2E/DX2                !
 ! R12   R(5,6)                  1.5496         estimate D2E/DX2                !
 ! R13   R(5,15)                 1.0939         estimate D2E/DX2                !
 ! R14   R(6,7)                  1.5705         estimate D2E/DX2                !
 ! R15   R(6,16)                 1.0925         estimate D2E/DX2                !
 ! R16   R(6,17)                 1.0921         estimate D2E/DX2                !
 ! R17   R(7,8)                  1.5026         estimate D2E/DX2                !
 ! R18   R(7,18)                 1.0984         estimate D2E/DX2                !
 ! R19   R(8,9)                  1.2062         estimate D2E/DX2                !
 ! R20   R(8,19)                 1.1158         estimate D2E/DX2                !
 ! A1    A(2,1,10)             111.5157         estimate D2E/DX2                !
 ! A2    A(2,1,11)             111.2505         estimate D2E/DX2                !
 ! A3    A(2,1,12)             110.5812         estimate D2E/DX2                !
 ! A4    A(10,1,11)            107.8783         estimate D2E/DX2                !
 ! A5    A(10,1,12)            107.6343         estimate D2E/DX2                !
 ! A6    A(11,1,12)            107.8181         estimate D2E/DX2                !
 ! A7    A(1,2,3)              118.0823         estimate D2E/DX2                !
 ! A8    A(1,2,5)              126.0157         estimate D2E/DX2                !
 ! A9    A(1,2,7)              118.1227         estimate D2E/DX2                !
 ! A10   A(3,2,5)               83.6813         estimate D2E/DX2                !
 ! A11   A(3,2,7)              114.7348         estimate D2E/DX2                !
 ! A12   A(5,2,7)               88.8417         estimate D2E/DX2                !
 ! A13   A(2,3,4)               92.1498         estimate D2E/DX2                !
 ! A14   A(2,3,13)             117.3698         estimate D2E/DX2                !
 ! A15   A(2,3,14)             113.3546         estimate D2E/DX2                !
 ! A16   A(4,3,13)             112.8531         estimate D2E/DX2                !
 ! A17   A(4,3,14)             111.0083         estimate D2E/DX2                !
 ! A18   A(13,3,14)            109.1762         estimate D2E/DX2                !
 ! A19   A(3,4,5)               91.9089         estimate D2E/DX2                !
 ! A20   A(2,5,4)               92.2547         estimate D2E/DX2                !
 ! A21   A(2,5,6)               91.4938         estimate D2E/DX2                !
 ! A22   A(2,5,15)             125.3382         estimate D2E/DX2                !
 ! A23   A(4,5,6)              112.6895         estimate D2E/DX2                !
 ! A24   A(4,5,15)             113.0208         estimate D2E/DX2                !
 ! A25   A(6,5,15)             118.1896         estimate D2E/DX2                !
 ! A26   A(5,6,7)               88.772          estimate D2E/DX2                !
 ! A27   A(5,6,16)             112.4805         estimate D2E/DX2                !
 ! A28   A(5,6,17)             115.3777         estimate D2E/DX2                !
 ! A29   A(7,6,16)             115.6882         estimate D2E/DX2                !
 ! A30   A(7,6,17)             114.1684         estimate D2E/DX2                !
 ! A31   A(16,6,17)            109.2828         estimate D2E/DX2                !
 ! A32   A(2,7,6)               90.8412         estimate D2E/DX2                !
 ! A33   A(2,7,8)              120.775          estimate D2E/DX2                !
 ! A34   A(2,7,18)             110.8208         estimate D2E/DX2                !
 ! A35   A(6,7,8)              117.8809         estimate D2E/DX2                !
 ! A36   A(6,7,18)             109.7714         estimate D2E/DX2                !
 ! A37   A(8,7,18)             106.0887         estimate D2E/DX2                !
 ! A38   A(7,8,9)              125.3157         estimate D2E/DX2                !
 ! A39   A(7,8,19)             113.9278         estimate D2E/DX2                !
 ! A40   A(9,8,19)             120.7563         estimate D2E/DX2                !
 ! D1    D(10,1,2,3)          -166.525          estimate D2E/DX2                !
 ! D2    D(10,1,2,5)           -63.013          estimate D2E/DX2                !
 ! D3    D(10,1,2,7)            48.099          estimate D2E/DX2                !
 ! D4    D(11,1,2,3)           -46.0358         estimate D2E/DX2                !
 ! D5    D(11,1,2,5)            57.4762         estimate D2E/DX2                !
 ! D6    D(11,1,2,7)           168.5883         estimate D2E/DX2                !
 ! D7    D(12,1,2,3)            73.7483         estimate D2E/DX2                !
 ! D8    D(12,1,2,5)           177.2602         estimate D2E/DX2                !
 ! D9    D(12,1,2,7)           -71.6277         estimate D2E/DX2                !
 ! D10   D(1,2,3,4)            128.2249         estimate D2E/DX2                !
 ! D11   D(1,2,3,13)          -114.5771         estimate D2E/DX2                !
 ! D12   D(1,2,3,14)            14.2096         estimate D2E/DX2                !
 ! D13   D(5,2,3,4)              0.5297         estimate D2E/DX2                !
 ! D14   D(5,2,3,13)           117.7277         estimate D2E/DX2                !
 ! D15   D(5,2,3,14)          -113.4856         estimate D2E/DX2                !
 ! D16   D(7,2,3,4)            -85.2606         estimate D2E/DX2                !
 ! D17   D(7,2,3,13)            31.9373         estimate D2E/DX2                !
 ! D18   D(7,2,3,14)           160.724          estimate D2E/DX2                !
 ! D19   D(1,2,5,4)           -120.8701         estimate D2E/DX2                !
 ! D20   D(1,2,5,6)            126.35           estimate D2E/DX2                !
 ! D21   D(1,2,5,15)            -0.3607         estimate D2E/DX2                !
 ! D22   D(3,2,5,4)             -0.536          estimate D2E/DX2                !
 ! D23   D(3,2,5,6)           -113.316          estimate D2E/DX2                !
 ! D24   D(3,2,5,15)           119.9734         estimate D2E/DX2                !
 ! D25   D(7,2,5,4)            114.5072         estimate D2E/DX2                !
 ! D26   D(7,2,5,6)              1.7272         estimate D2E/DX2                !
 ! D27   D(7,2,5,15)          -124.9834         estimate D2E/DX2                !
 ! D28   D(1,2,7,6)           -132.703          estimate D2E/DX2                !
 ! D29   D(1,2,7,8)            103.7183         estimate D2E/DX2                !
 ! D30   D(1,2,7,18)           -21.14           estimate D2E/DX2                !
 ! D31   D(3,2,7,6)             80.7968         estimate D2E/DX2                !
 ! D32   D(3,2,7,8)            -42.7818         estimate D2E/DX2                !
 ! D33   D(3,2,7,18)          -167.6401         estimate D2E/DX2                !
 ! D34   D(5,2,7,6)             -1.7037         estimate D2E/DX2                !
 ! D35   D(5,2,7,8)           -125.2824         estimate D2E/DX2                !
 ! D36   D(5,2,7,18)           109.8593         estimate D2E/DX2                !
 ! D37   D(2,3,4,5)             -0.5735         estimate D2E/DX2                !
 ! D38   D(13,3,4,5)          -121.5753         estimate D2E/DX2                !
 ! D39   D(14,3,4,5)           115.4898         estimate D2E/DX2                !
 ! D40   D(3,4,5,2)              0.5686         estimate D2E/DX2                !
 ! D41   D(3,4,5,6)             93.1328         estimate D2E/DX2                !
 ! D42   D(3,4,5,15)          -129.647          estimate D2E/DX2                !
 ! D43   D(2,5,6,7)             -1.7127         estimate D2E/DX2                !
 ! D44   D(2,5,6,16)           115.6976         estimate D2E/DX2                !
 ! D45   D(2,5,6,17)          -118.0135         estimate D2E/DX2                !
 ! D46   D(4,5,6,7)            -94.7829         estimate D2E/DX2                !
 ! D47   D(4,5,6,16)            22.6274         estimate D2E/DX2                !
 ! D48   D(4,5,6,17)           148.9163         estimate D2E/DX2                !
 ! D49   D(15,5,6,7)           130.3882         estimate D2E/DX2                !
 ! D50   D(15,5,6,16)         -112.2015         estimate D2E/DX2                !
 ! D51   D(15,5,6,17)           14.0874         estimate D2E/DX2                !
 ! D52   D(5,6,7,2)              1.7162         estimate D2E/DX2                !
 ! D53   D(5,6,7,8)            127.6389         estimate D2E/DX2                !
 ! D54   D(5,6,7,18)          -110.8054         estimate D2E/DX2                !
 ! D55   D(16,6,7,2)          -112.7458         estimate D2E/DX2                !
 ! D56   D(16,6,7,8)            13.1768         estimate D2E/DX2                !
 ! D57   D(16,6,7,18)          134.7326         estimate D2E/DX2                !
 ! D58   D(17,6,7,2)           119.1194         estimate D2E/DX2                !
 ! D59   D(17,6,7,8)          -114.9579         estimate D2E/DX2                !
 ! D60   D(17,6,7,18)            6.5978         estimate D2E/DX2                !
 ! D61   D(2,7,8,9)            -16.6373         estimate D2E/DX2                !
 ! D62   D(2,7,8,19)           163.5104         estimate D2E/DX2                !
 ! D63   D(6,7,8,9)           -126.173          estimate D2E/DX2                !
 ! D64   D(6,7,8,19)            53.9747         estimate D2E/DX2                !
 ! D65   D(18,7,8,9)           110.3997         estimate D2E/DX2                !
 ! D66   D(18,7,8,19)          -69.4526         estimate D2E/DX2                !
 --------------------------------------------------------------------------------
 Trust Radius=3.00D-01 FncErr=1.00D-07 GrdErr=1.00D-06
 Number of steps in this run=    114 maximum allowed number of steps=    114.
 GradGradGradGradGradGradGradGradGradGradGradGradGradGradGradGradGradGrad

                          Input orientation:                          
 ---------------------------------------------------------------------
 Center     Atomic      Atomic             Coordinates (Angstroms)
 Number     Number       Type             X           Y           Z
 ---------------------------------------------------------------------
      1          6           0        0.144535   -1.201047   -3.205599
      2          6           0       -0.165658   -0.568278   -1.868845
      3          6           0       -0.585033    0.921235   -1.847705
      4          8           0       -1.770588    0.632847   -1.062585
      5          6           0       -1.472484   -0.769501   -1.039280
      6          6           0       -0.661348   -1.187424    0.213152
      7          6           0        0.655067   -1.031816   -0.629143
      8          6           0        1.751190   -0.171273   -0.067231
      9          8           0        2.277145    0.750589   -0.640393
     10          1           0        0.195251   -2.293156   -3.131193
     11          1           0       -0.618235   -0.949847   -3.950227
     12          1           0        1.111307   -0.848686   -3.583694
     13          1           0        0.088987    1.625800   -1.355139
     14          1           0       -0.853989    1.311602   -2.837579
     15          1           0       -2.321187   -1.392264   -1.336784
     16          1           0       -0.779642   -0.484560    1.041165
     17          1           0       -0.844899   -2.202197    0.572490
     18          1           0        1.102913   -2.019294   -0.804420
     19          1           0        2.065213   -0.455179    0.965152
 ---------------------------------------------------------------------
                    Distance matrix (angstroms):
                    1          2          3          4          5
     1  C    0.000000
     2  C    1.511135   0.000000
     3  C    2.623019   1.547570   0.000000
     4  O    3.409306   2.160684   1.450904   0.000000
     5  C    2.737503   1.560917   2.073574   1.433872   0.000000
     6  C    3.512476   2.227950   2.949475   2.484211   1.549576
     7  C    2.631997   1.557343   2.614795   2.973681   2.182544
     8  C    3.673027   2.660402   3.133944   3.747034   3.419771
     9  O    3.864866   3.035752   3.111074   4.071394   4.065649
    10  H    1.095816   2.167714   3.548027   4.087194   3.078793
    11  H    1.095167   2.163925   2.814721   3.488741   3.039060
    12  H    1.096249   2.156381   3.003972   4.105636   3.627161
    13  H    3.379105   2.267756   1.092399   2.128277   2.876704
    14  H    2.728716   2.224004   1.097531   2.109849   2.819114
    15  H    3.099810   2.368195   2.937270   2.116465   1.093911
    16  H    4.404823   2.975255   3.218649   2.579988   2.211215
    17  H    4.031778   3.015157   3.959887   3.401153   2.245948
    18  H    2.711767   2.201754   3.547438   3.918865   2.872248
    19  H    4.651934   3.608479   4.102497   4.473129   4.078216
                    6          7          8          9         10
     6  C    0.000000
     7  C    1.570549   0.000000
     8  C    2.632778   1.502586   0.000000
     9  O    3.622040   2.410027   1.206223   0.000000
    10  H    3.625058   2.839483   4.038713   4.450028   0.000000
    11  H    4.170375   3.557754   4.614977   4.714839   1.771174
    12  H    4.203937   2.995173   3.637837   3.546813   1.769297
    13  H    3.307079   2.812551   2.766063   2.462700   4.303938
    14  H    3.948316   3.556128   4.081753   3.866052   3.765819
    15  H    2.280203   3.080385   4.436986   5.120688   3.219312
    16  H    1.092529   2.268879   2.780612   3.700970   4.650808
    17  H    1.092053   2.250248   3.357615   4.465108   3.848045
    18  H    2.200016   1.098362   2.092580   3.012968   2.512514
    19  H    2.921613   2.205176   1.115808   2.019051   4.863637
                   11         12         13         14         15
    11  H    0.000000
    12  H    1.770846   0.000000
    13  H    3.724058   3.483487   0.000000
    14  H    2.531347   3.014286   1.784812   0.000000
    15  H    3.150534   4.138369   3.862382   3.422856   0.000000
    16  H    5.015630   5.009751   3.309141   4.275088   2.975724
    17  H    4.698375   4.788799   4.386509   4.896471   2.545730
    18  H    3.741947   3.015752   3.823356   4.365554   3.521511
    19  H    5.621970   4.664417   3.690487   5.109209   5.041582
                   16         17         18         19
    16  H    0.000000
    17  H    1.781627   0.000000
    18  H    3.050509   2.392343   0.000000
    19  H    2.846022   3.416872   2.550267   0.000000
 Stoichiometry    C7H10O2
 Framework group  C1[X(C7H10O2)]
 Deg. of freedom    51
 Full point group                 C1      NOp   1
 Largest Abelian subgroup         C1      NOp   1
 Largest concise Abelian subgroup C1      NOp   1
                         Standard orientation:                         
 ---------------------------------------------------------------------
 Center     Atomic      Atomic             Coordinates (Angstroms)
 Number     Number       Type             X           Y           Z
 ---------------------------------------------------------------------
      1          6           0       -0.805916    1.900484   -0.868109
      2          6           0       -0.481312    0.570440   -0.228466
      3          6           0       -0.687809    0.426708    1.298515
      4          8           0       -1.483196   -0.775404    1.132962
      5          6           0       -1.359411   -0.718379   -0.294418
      6          6           0       -0.166374   -1.553006   -0.824746
      7          6           0        0.710246   -0.250021   -0.804965
      8          6           0        2.028319   -0.300766   -0.085332
      9          8           0        2.379688    0.461672    0.780810
     10          1           0       -0.851934    1.820736   -1.960050
     11          1           0       -1.769986    2.284498   -0.518120
     12          1           0       -0.039115    2.644084   -0.621456
     13          1           0        0.201237    0.265953    1.912593
     14          1           0       -1.285665    1.237087    1.734896
     15          1           0       -2.319943   -0.803821   -0.810867
     16          1           0        0.136560   -2.338221   -0.128120
     17          1           0       -0.302521   -1.985247   -1.818331
     18          1           0        0.936895    0.060948   -1.833716
     19          1           0        2.696085   -1.128930   -0.421873
 ---------------------------------------------------------------------
 Rotational constants (GHZ):      2.2619658      1.5054171      1.3757377
 Standard basis: 6-31G(2df,p) (6D, 7F)
 There are   329 symmetry adapted cartesian basis functions of A   symmetry.
 There are   302 symmetry adapted basis functions of A   symmetry.
   302 basis functions,   466 primitive gaussians,   329 cartesian basis functions
    34 alpha electrons       34 beta electrons
       nuclear repulsion energy       467.8448747545 Hartrees.
 NAtoms=   19 NActive=   19 NUniq=   19 SFac= 1.00D+00 NAtFMM=   60 NAOKFM=F Big=F
 Integral buffers will be    131072 words long.
 Raffenetti 2 integral format.
 Two-electron integral symmetry is turned on.
 One-electron integrals computed using PRISM.
 NBasis=   302 RedAO= T EigKep=  2.79D-04  NBF=   302
 NBsUse=   302 1.00D-06 EigRej= -1.00D+00 NBFU=   302
 ExpMin= 1.61D-01 ExpMax= 5.48D+03 ExpMxC= 8.25D+02 IAcc=1 IRadAn=         1 AccDes= 0.00D+00
 Harris functional with IExCor=  402 and IRadAn=       1 diagonalized for initial guess.
 HarFok:  IExCor=  402 AccDes= 0.00D+00 IRadAn=         1 IDoV= 1 UseB2=F ITyADJ=14
 ICtDFT=  3500011 ScaDFX=  1.000000  1.000000  1.000000  1.000000
 FoFCou: FMM=F IPFlag=           0 FMFlag=      100000 FMFlg1=           0
         NFxFlg=           0 DoJE=T BraDBF=F KetDBF=T FulRan=T
         wScrn=  0.000000 ICntrl=     500 IOpCl=  0 I1Cent=   200000004 NGrid=           0
         NMat0=    1 NMatS0=      1 NMatT0=    0 NMatD0=    1 NMtDS0=    0 NMtDT0=    0
 Petite list used in FoFCou.
 Requested convergence on RMS density matrix=1.00D-08 within 128 cycles.
 Requested convergence on MAX density matrix=1.00D-06.
 Requested convergence on             energy=1.00D-06.
 No special actions if energy rises.
 Integral accuracy reduced to 1.0D-05 until final iterations.
 Initial convergence to 1.0D-05 achieved.  Increase integral accuracy.
 SCF Done:  E(RB3LYP) =  -423.160326963     A.U. after   14 cycles
            NFock= 14  Conv=0.53D-08     -V/T= 2.0074

 **********************************************************************

            Population analysis using the SCF density.

 **********************************************************************

 Orbital symmetries:
       Occupied  (A) (A) (A) (A) (A) (A) (A) (A) (A) (A) (A) (A)
                 (A) (A) (A) (A) (A) (A) (A) (A) (A) (A) (A) (A)
                 (A) (A) (A) (A) (A) (A) (A) (A) (A) (A)
       Virtual   (A) (A) (A) (A) (A) (A) (A) (A) (A) (A) (A) (A)
                 (A) (A) (A) (A) (A) (A) (A) (A) (A) (A) (A) (A)
                 (A) (A) (A) (A) (A) (A) (A) (A) (A) (A) (A) (A)
                 (A) (A) (A) (A) (A) (A) (A) (A) (A) (A) (A) (A)
                 (A) (A) (A) (A) (A) (A) (A) (A) (A) (A) (A) (A)
                 (A) (A) (A) (A) (A) (A) (A) (A) (A) (A) (A) (A)
                 (A) (A) (A) (A) (A) (A) (A) (A) (A) (A) (A) (A)
                 (A) (A) (A) (A) (A) (A) (A) (A) (A) (A) (A) (A)
                 (A) (A) (A) (A) (A) (A) (A) (A) (A) (A) (A) (A)
                 (A) (A) (A) (A) (A) (A) (A) (A) (A) (A) (A) (A)
                 (A) (A) (A) (A) (A) (A) (A) (A) (A) (A) (A) (A)
                 (A) (A) (A) (A) (A) (A) (A) (A) (A) (A) (A) (A)
                 (A) (A) (A) (A) (A) (A) (A) (A) (A) (A) (A) (A)
                 (A) (A) (A) (A) (A) (A) (A) (A) (A) (A) (A) (A)
                 (A) (A) (A) (A) (A) (A) (A) (A) (A) (A) (A) (A)
                 (A) (A) (A) (A) (A) (A) (A) (A) (A) (A) (A) (A)
                 (A) (A) (A) (A) (A) (A) (A) (A) (A) (A) (A) (A)
                 (A) (A) (A) (A) (A) (A) (A) (A) (A) (A) (A) (A)
                 (A) (A) (A) (A) (A) (A) (A) (A) (A) (A) (A) (A)
                 (A) (A) (A) (A) (A) (A) (A) (A) (A) (A) (A) (A)
                 (A) (A) (A) (A) (A) (A) (A) (A) (A) (A) (A) (A)
                 (A) (A) (A) (A) (A) (A) (A) (A) (A) (A) (A) (A)
                 (A) (A) (A) (A)
 The electronic state is 1-A.
 Alpha  occ. eigenvalues --  -19.14444 -19.13259 -10.27489 -10.23641 -10.22585
 Alpha  occ. eigenvalues --  -10.20635 -10.20391 -10.19590 -10.18557  -1.05092
 Alpha  occ. eigenvalues --   -1.04007  -0.84382  -0.75247  -0.70219  -0.67362
 Alpha  occ. eigenvalues --   -0.62692  -0.58060  -0.52799  -0.50166  -0.48581
 Alpha  occ. eigenvalues --   -0.46305  -0.45130  -0.42991  -0.42349  -0.41125
 Alpha  occ. eigenvalues --   -0.40315  -0.39901  -0.37255  -0.35274  -0.33224
 Alpha  occ. eigenvalues --   -0.30491  -0.28787  -0.25425  -0.24270
 Alpha virt. eigenvalues --   -0.02675   0.07087   0.07601   0.10514   0.11865
 Alpha virt. eigenvalues --    0.12686   0.13940   0.14168   0.14608   0.16083
 Alpha virt. eigenvalues --    0.17175   0.17470   0.18640   0.19633   0.20919
 Alpha virt. eigenvalues --    0.23170   0.25157   0.28822   0.29666   0.33063
 Alpha virt. eigenvalues --    0.37514   0.39806   0.42352   0.44134   0.45430
 Alpha virt. eigenvalues --    0.46149   0.47546   0.49868   0.50756   0.52011
 Alpha virt. eigenvalues --    0.53103   0.55831   0.57080   0.58215   0.60556
 Alpha virt. eigenvalues --    0.62776   0.64539   0.64962   0.66655   0.68845
 Alpha virt. eigenvalues --    0.69595   0.69809   0.71570   0.72237   0.74090
 Alpha virt. eigenvalues --    0.74499   0.75748   0.76298   0.77239   0.79375
 Alpha virt. eigenvalues --    0.81479   0.82237   0.83951   0.85669   0.86781
 Alpha virt. eigenvalues --    0.89951   0.92452   0.94032   0.96823   0.97326
 Alpha virt. eigenvalues --    1.00493   1.01482   1.03379   1.05148   1.08386
 Alpha virt. eigenvalues --    1.11111   1.13410   1.15467   1.17338   1.19572
 Alpha virt. eigenvalues --    1.23367   1.24294   1.26424   1.28413   1.32399
 Alpha virt. eigenvalues --    1.33967   1.34755   1.38082   1.39195   1.41174
 Alpha virt. eigenvalues --    1.43352   1.44306   1.45040   1.46613   1.49984
 Alpha virt. eigenvalues --    1.50499   1.52218   1.53420   1.55348   1.56001
 Alpha virt. eigenvalues --    1.58315   1.59829   1.62925   1.66511   1.67046
 Alpha virt. eigenvalues --    1.68377   1.69913   1.70619   1.73063   1.75269
 Alpha virt. eigenvalues --    1.80441   1.81845   1.85659   1.86692   1.90406
 Alpha virt. eigenvalues --    1.94408   1.95684   1.99406   2.01981   2.04121
 Alpha virt. eigenvalues --    2.08715   2.10430   2.18180   2.22935   2.26240
 Alpha virt. eigenvalues --    2.27469   2.30327   2.35719   2.36503   2.36932
 Alpha virt. eigenvalues --    2.41099   2.44563   2.49364   2.50033   2.53644
 Alpha virt. eigenvalues --    2.59078   2.59876   2.63760   2.67925   2.72341
 Alpha virt. eigenvalues --    2.74820   2.76123   2.79489   2.82570   2.83535
 Alpha virt. eigenvalues --    2.84539   2.86871   2.89146   2.91140   2.92852
 Alpha virt. eigenvalues --    2.93806   2.96058   2.97421   2.99763   3.02235
 Alpha virt. eigenvalues --    3.05071   3.06919   3.09345   3.10530   3.11856
 Alpha virt. eigenvalues --    3.15764   3.17782   3.19752   3.22727   3.24883
 Alpha virt. eigenvalues --    3.26429   3.29242   3.31951   3.34185   3.35791
 Alpha virt. eigenvalues --    3.38201   3.40682   3.43597   3.44988   3.46702
 Alpha virt. eigenvalues --    3.48100   3.49802   3.50974   3.54175   3.55299
 Alpha virt. eigenvalues --    3.57753   3.64449   3.70029   3.72926   3.80891
 Alpha virt. eigenvalues --    3.82689   3.83110   3.86766   3.92009   3.93332
 Alpha virt. eigenvalues --    3.97831   3.98518   4.02211   4.04685   4.11220
 Alpha virt. eigenvalues --    4.11962   4.13053   4.18926   4.23070   4.25334
 Alpha virt. eigenvalues --    4.29777   4.31798   4.34094   4.35824   4.38873
 Alpha virt. eigenvalues --    4.40571   4.41814   4.45587   4.47894   4.48238
 Alpha virt. eigenvalues --    4.50684   4.51833   4.52632   4.53952   4.55519
 Alpha virt. eigenvalues --    4.58714   4.60359   4.62609   4.65461   4.67699
 Alpha virt. eigenvalues --    4.69492   4.70607   4.74767   4.76251   4.77156
 Alpha virt. eigenvalues --    4.79684   4.80642   4.81961   4.84301   4.86316
 Alpha virt. eigenvalues --    4.86950   4.89915   4.92015   4.95679   4.97541
 Alpha virt. eigenvalues --    5.03149   5.05080   5.06019   5.07381   5.07993
 Alpha virt. eigenvalues --    5.08664   5.10846   5.19840   5.23886   5.27108
 Alpha virt. eigenvalues --    5.27867   5.36542   5.39840   5.43138   5.45684
 Alpha virt. eigenvalues --    5.52040   5.53252   5.57613   5.65781   5.68769
 Alpha virt. eigenvalues --    5.73661   5.76129   5.81179   5.89315   5.94135
 Alpha virt. eigenvalues --    6.00650   6.02734   6.13767   6.26197   6.29232
 Alpha virt. eigenvalues --    6.43980   6.79838   7.07927   7.65603  10.79538
 Alpha virt. eigenvalues --   11.07951  11.62780  11.68714  12.14665  12.49542
 Alpha virt. eigenvalues --   12.93513  13.26761  13.61872
          Condensed to atoms (all electrons):
               1          2          3          4          5          6
     1  C    5.228755   0.363749  -0.052540   0.006462  -0.048932   0.013898
     2  C    0.363749   4.465807   0.387808  -0.059165   0.379732  -0.037013
     3  C   -0.052540   0.387808   4.969904   0.324362  -0.163507   0.002685
     4  O    0.006462  -0.059165   0.324362   7.790251   0.333907  -0.031803
     5  C   -0.048932   0.379732  -0.163507   0.333907   4.824601   0.287794
     6  C    0.013898  -0.037013   0.002685  -0.031803   0.287794   5.180659
     7  C   -0.053787   0.329050  -0.022256   0.005857  -0.062108   0.288464
     8  C    0.003313  -0.009073  -0.008089   0.001092   0.002264  -0.003228
     9  O   -0.000893   0.002891  -0.003544   0.000015   0.001053   0.000384
    10  H    0.357609  -0.011413   0.005226  -0.000170  -0.004332   0.000465
    11  H    0.358956  -0.014170  -0.003992   0.000363  -0.002211  -0.000424
    12  H    0.358392  -0.010313  -0.004143  -0.000133   0.004721  -0.000291
    13  H    0.005014  -0.005550   0.343799  -0.023912   0.005485   0.002361
    14  H   -0.012426  -0.015976   0.339844  -0.025067   0.003573  -0.001438
    15  H   -0.006179  -0.040370   0.011278  -0.031362   0.362261  -0.071672
    16  H   -0.000528  -0.003578   0.000837  -0.000661   0.000396   0.333158
    17  H   -0.000349   0.003520  -0.000623   0.002471  -0.012204   0.338367
    18  H   -0.013277  -0.021706   0.004711  -0.000260   0.003521  -0.029308
    19  H   -0.000211   0.003556   0.000203   0.000017   0.000944   0.001750
               7          8          9         10         11         12
     1  C   -0.053787   0.003313  -0.000893   0.357609   0.358956   0.358392
     2  C    0.329050  -0.009073   0.002891  -0.011413  -0.014170  -0.010313
     3  C   -0.022256  -0.008089  -0.003544   0.005226  -0.003992  -0.004143
     4  O    0.005857   0.001092   0.000015  -0.000170   0.000363  -0.000133
     5  C   -0.062108   0.002264   0.001053  -0.004332  -0.002211   0.004721
     6  C    0.288464  -0.003228   0.000384   0.000465  -0.000424  -0.000291
     7  C    5.303687   0.260117  -0.072946  -0.005704   0.004760  -0.003254
     8  C    0.260117   4.526888   0.760736   0.000021  -0.000071   0.000563
     9  O   -0.072946   0.760736   7.601301   0.000004   0.000007   0.000788
    10  H   -0.005704   0.000021   0.000004   0.601756  -0.031725  -0.032210
    11  H    0.004760  -0.000071   0.000007  -0.031725   0.589590  -0.030502
    12  H   -0.003254   0.000563   0.000788  -0.032210  -0.030502   0.579074
    13  H   -0.019414   0.006004   0.010818  -0.000158  -0.000103   0.000279
    14  H    0.004796   0.000073   0.000111  -0.000052   0.004527   0.001246
    15  H    0.011534  -0.000111   0.000001   0.001014   0.001330  -0.000051
    16  H   -0.019574  -0.005099   0.000309  -0.000004   0.000008   0.000016
    17  H   -0.013413   0.001899  -0.000038  -0.000068   0.000017   0.000009
    18  H    0.333675  -0.032345   0.000905   0.005075  -0.000062   0.000866
    19  H   -0.119002   0.351331  -0.052163   0.000003   0.000003   0.000017
              13         14         15         16         17         18
     1  C    0.005014  -0.012426  -0.006179  -0.000528  -0.000349  -0.013277
     2  C   -0.005550  -0.015976  -0.040370  -0.003578   0.003520  -0.021706
     3  C    0.343799   0.339844   0.011278   0.000837  -0.000623   0.004711
     4  O   -0.023912  -0.025067  -0.031362  -0.000661   0.002471  -0.000260
     5  C    0.005485   0.003573   0.362261   0.000396  -0.012204   0.003521
     6  C    0.002361  -0.001438  -0.071672   0.333158   0.338367  -0.029308
     7  C   -0.019414   0.004796   0.011534  -0.019574  -0.013413   0.333675
     8  C    0.006004   0.000073  -0.000111  -0.005099   0.001899  -0.032345
     9  O    0.010818   0.000111   0.000001   0.000309  -0.000038   0.000905
    10  H   -0.000158  -0.000052   0.001014  -0.000004  -0.000068   0.005075
    11  H   -0.000103   0.004527   0.001330   0.000008   0.000017  -0.000062
    12  H    0.000279   0.001246  -0.000051   0.000016   0.000009   0.000866
    13  H    0.601088  -0.052107  -0.000900  -0.000055  -0.000039   0.000142
    14  H   -0.052107   0.653205   0.000590   0.000105   0.000034  -0.000128
    15  H   -0.000900   0.000590   0.683561   0.004105  -0.001528  -0.000305
    16  H   -0.000055   0.000105   0.004105   0.598296  -0.034928   0.004433
    17  H   -0.000039   0.000034  -0.001528  -0.034928   0.619742  -0.011366
    18  H    0.000142  -0.000128  -0.000305   0.004433  -0.011366   0.649859
    19  H    0.000192   0.000005   0.000025   0.002754  -0.000245   0.002766
              19
     1  C   -0.000211
     2  C    0.003556
     3  C    0.000203
     4  O    0.000017
     5  C    0.000944
     6  C    0.001750
     7  C   -0.119002
     8  C    0.351331
     9  O   -0.052163
    10  H    0.000003
    11  H    0.000003
    12  H    0.000017
    13  H    0.000192
    14  H    0.000005
    15  H    0.000025
    16  H    0.002754
    17  H   -0.000245
    18  H    0.002766
    19  H    0.728505
 Mulliken charges:
               1
     1  C   -0.507026
     2  C    0.292214
     3  C   -0.131963
     4  O   -0.292263
     5  C    0.083043
     6  C   -0.274809
     7  C   -0.150482
     8  C    0.143714
     9  O   -0.249739
    10  H    0.114661
    11  H    0.123700
    12  H    0.134928
    13  H    0.127055
    14  H    0.099085
    15  H    0.076779
    16  H    0.120009
    17  H    0.108743
    18  H    0.102800
    19  H    0.079550
 Sum of Mulliken charges =   0.00000
 Mulliken charges with hydrogens summed into heavy atoms:
               1
     1  C   -0.133737
     2  C    0.292214
     3  C    0.094178
     4  O   -0.292263
     5  C    0.159821
     6  C   -0.046056
     7  C   -0.047682
     8  C    0.223265
     9  O   -0.249739
 Electronic spatial extent (au):  <R**2>=           1067.3313
 Charge=              0.0000 electrons
 Dipole moment (field-independent basis, Debye):
    X=             -0.4613    Y=             -0.1190    Z=             -2.8335  Tot=              2.8733
 Quadrupole moment (field-independent basis, Debye-Ang):
   XX=            -58.2786   YY=            -52.6335   ZZ=            -53.3887
   XY=             -4.6346   XZ=             -1.1488   YZ=              1.6470
 Traceless Quadrupole moment (field-independent basis, Debye-Ang):
   XX=             -3.5117   YY=              2.1335   ZZ=              1.3782
   XY=             -4.6346   XZ=             -1.1488   YZ=              1.6470
 Octapole moment (field-independent basis, Debye-Ang**2):
  XXX=             -6.5385  YYY=             -1.1422  ZZZ=              3.8036  XYY=              1.8385
  XXY=             -4.1138  XXZ=            -11.8358  XZZ=              1.7686  YZZ=              1.4147
  YYZ=              1.0022  XYZ=             -6.3327
 Hexadecapole moment (field-independent basis, Debye-Ang**3):
 XXXX=           -653.4693 YYYY=           -423.0331 ZZZZ=           -303.5586 XXXY=            -11.6212
 XXXZ=            -13.9826 YYYX=              8.0747 YYYZ=              1.5216 ZZZX=              1.6170
 ZZZY=              3.0463 XXYY=           -174.0532 XXZZ=           -167.1459 YYZZ=           -125.5800
 XXYZ=              1.9885 YYXZ=              1.2581 ZZXY=             -2.3586
 N-N= 4.678448747545D+02 E-N=-1.922339908622D+03  KE= 4.200362231783D+02
 Calling FoFJK, ICntrl=      2127 FMM=F ISym2X=0 I1Cent= 0 IOpClX= 0 NMat=1 NMatS=1 NMatT=0.
 ***** Axes restored to original set *****
 -------------------------------------------------------------------
 Center     Atomic                   Forces (Hartrees/Bohr)
 Number     Number              X              Y              Z
 -------------------------------------------------------------------
      1        6          -0.000008565    0.000020277    0.000037728
      2        6           0.000051797   -0.000034467   -0.000032910
      3        6          -0.000015332    0.000009349   -0.000005726
      4        8          -0.000027206    0.000053772    0.000006276
      5        6          -0.000005851   -0.000061939    0.000012740
      6        6           0.000001696    0.000025030   -0.000030653
      7        6           0.000007341    0.000011630    0.000016004
      8        6          -0.000015491   -0.000044456    0.000022821
      9        8           0.000016368    0.000041466   -0.000010634
     10        1           0.000017070   -0.000001624   -0.000008786
     11        1           0.000006605   -0.000006059   -0.000005145
     12        1           0.000008620    0.000004926   -0.000008673
     13        1          -0.000009905   -0.000015070    0.000003526
     14        1          -0.000004515   -0.000011454    0.000001241
     15        1          -0.000001499    0.000011375   -0.000003762
     16        1          -0.000010160   -0.000013166    0.000001777
     17        1           0.000002628   -0.000010231    0.000002938
     18        1          -0.000010298    0.000002512    0.000005549
     19        1          -0.000003303    0.000018128   -0.000004309
 -------------------------------------------------------------------
 Cartesian Forces:  Max     0.000061939 RMS     0.000020504

 GradGradGradGradGradGradGradGradGradGradGradGradGradGradGradGradGradGrad
 Berny optimization.
 FormGI is forming the generalized inverse of G from B-inverse, IUseBI=4.
 Internal  Forces:  Max     0.000045610 RMS     0.000008309
 Search for a local minimum.
 Step number   1 out of a maximum of  114
 All quantities printed in internal units (Hartrees-Bohrs-Radians)
 Mixed Optimization -- En-DIIS/RFO-DIIS
 Second derivative matrix not updated -- first step.
 ITU=  0
     Eigenvalues ---    0.00331   0.00619   0.00732   0.00732   0.01291
     Eigenvalues ---    0.02516   0.02716   0.03284   0.03915   0.04500
     Eigenvalues ---    0.04661   0.04711   0.05140   0.05339   0.05621
     Eigenvalues ---    0.05721   0.05822   0.06269   0.06447   0.07164
     Eigenvalues ---    0.08361   0.10004   0.10533   0.11142   0.12459
     Eigenvalues ---    0.16000   0.16000   0.16000   0.16000   0.16518
     Eigenvalues ---    0.18065   0.22000   0.24347   0.25126   0.26670
     Eigenvalues ---    0.27379   0.31237   0.31993   0.32108   0.33864
     Eigenvalues ---    0.33957   0.34100   0.34149   0.34222   0.34296
     Eigenvalues ---    0.34365   0.34522   0.34537   0.34577   0.37619
     Eigenvalues ---    1.01757
 RFO step:  Lambda=-6.29092650D-08 EMin= 3.30698581D-03
 Linear search not attempted -- first point.
 Iteration  1 RMS(Cart)=  0.00017095 RMS(Int)=  0.00000003
 Iteration  2 RMS(Cart)=  0.00000003 RMS(Int)=  0.00000001
 Variable       Old X    -DE/DX   Delta X   Delta X   Delta X     New X
                                 (Linear)    (Quad)   (Total)
    R1        2.85563  -0.00002   0.00000  -0.00006  -0.00006   2.85557
    R2        2.07079   0.00000   0.00000   0.00001   0.00001   2.07080
    R3        2.06957   0.00000   0.00000   0.00000   0.00000   2.06957
    R4        2.07161   0.00001   0.00000   0.00002   0.00002   2.07163
    R5        2.92448   0.00001   0.00000   0.00004   0.00004   2.92452
    R6        2.94971   0.00002   0.00000   0.00011   0.00011   2.94982
    R7        2.94295   0.00000   0.00000   0.00001   0.00001   2.94296
    R8        2.74181   0.00001   0.00000  -0.00001  -0.00001   2.74180
    R9        2.06434  -0.00001   0.00000  -0.00003  -0.00003   2.06430
   R10        2.07403  -0.00001   0.00000  -0.00002  -0.00002   2.07402
   R11        2.70963   0.00005   0.00000   0.00011   0.00011   2.70973
   R12        2.92828  -0.00001   0.00000  -0.00004  -0.00004   2.92823
   R13        2.06719  -0.00001   0.00000  -0.00002  -0.00002   2.06717
   R14        2.96791   0.00000   0.00000   0.00000   0.00000   2.96790
   R15        2.06458   0.00000   0.00000  -0.00001  -0.00001   2.06457
   R16        2.06368   0.00001   0.00000   0.00002   0.00002   2.06371
   R17        2.83948   0.00000   0.00000   0.00001   0.00001   2.83949
   R18        2.07560  -0.00001   0.00000  -0.00002  -0.00002   2.07559
   R19        2.27943   0.00004   0.00000   0.00004   0.00004   2.27947
   R20        2.10857  -0.00001   0.00000  -0.00003  -0.00003   2.10854
    A1        1.94632   0.00001   0.00000   0.00009   0.00009   1.94641
    A2        1.94169   0.00000   0.00000   0.00002   0.00002   1.94171
    A3        1.93001   0.00001   0.00000   0.00003   0.00003   1.93004
    A4        1.88283  -0.00001   0.00000  -0.00003  -0.00003   1.88280
    A5        1.87857  -0.00001   0.00000  -0.00006  -0.00006   1.87851
    A6        1.88178  -0.00001   0.00000  -0.00006  -0.00006   1.88172
    A7        2.06092   0.00000   0.00000  -0.00005  -0.00005   2.06087
    A8        2.19939   0.00000   0.00000   0.00007   0.00007   2.19946
    A9        2.06163   0.00000   0.00000   0.00004   0.00004   2.06167
   A10        1.46051  -0.00001   0.00000  -0.00008  -0.00008   1.46043
   A11        2.00250   0.00000   0.00000   0.00002   0.00002   2.00252
   A12        1.55058   0.00000   0.00000   0.00000   0.00000   1.55058
   A13        1.60832   0.00002   0.00000   0.00012   0.00012   1.60843
   A14        2.04849  -0.00001   0.00000  -0.00010  -0.00010   2.04839
   A15        1.97841  -0.00001   0.00000  -0.00003  -0.00003   1.97838
   A16        1.96966  -0.00001   0.00000  -0.00005  -0.00005   1.96961
   A17        1.93746   0.00000   0.00000  -0.00001  -0.00001   1.93745
   A18        1.90548   0.00001   0.00000   0.00007   0.00007   1.90555
   A19        1.60411  -0.00002   0.00000  -0.00008  -0.00008   1.60403
   A20        1.61015   0.00000   0.00000   0.00005   0.00005   1.61020
   A21        1.59687  -0.00001   0.00000  -0.00004  -0.00004   1.59683
   A22        2.18756   0.00000   0.00000   0.00008   0.00008   2.18764
   A23        1.96680   0.00000   0.00000  -0.00004  -0.00004   1.96676
   A24        1.97259  -0.00001   0.00000  -0.00012  -0.00012   1.97247
   A25        2.06280   0.00001   0.00000   0.00008   0.00008   2.06288
   A26        1.54936   0.00001   0.00000   0.00006   0.00006   1.54942
   A27        1.96315   0.00000   0.00000   0.00003   0.00003   1.96318
   A28        2.01372   0.00000   0.00000  -0.00001  -0.00001   2.01371
   A29        2.01914   0.00000   0.00000   0.00009   0.00009   2.01923
   A30        1.99262   0.00000   0.00000  -0.00006  -0.00006   1.99255
   A31        1.90734   0.00000   0.00000  -0.00007  -0.00007   1.90728
   A32        1.58548   0.00000   0.00000  -0.00002  -0.00002   1.58546
   A33        2.10792   0.00000   0.00000   0.00002   0.00002   2.10795
   A34        1.93419   0.00000   0.00000  -0.00003  -0.00003   1.93416
   A35        2.05741   0.00001   0.00000   0.00012   0.00012   2.05753
   A36        1.91587   0.00000   0.00000  -0.00014  -0.00014   1.91573
   A37        1.85160   0.00000   0.00000   0.00003   0.00003   1.85162
   A38        2.18717   0.00000   0.00000   0.00001   0.00001   2.18718
   A39        1.98842   0.00001   0.00000   0.00006   0.00006   1.98848
   A40        2.10760  -0.00001   0.00000  -0.00007  -0.00007   2.10753
    D1       -2.90641   0.00000   0.00000  -0.00043  -0.00043  -2.90684
    D2       -1.09979  -0.00001   0.00000  -0.00055  -0.00055  -1.10033
    D3        0.83949   0.00000   0.00000  -0.00045  -0.00045   0.83904
    D4       -0.80348   0.00000   0.00000  -0.00040  -0.00040  -0.80387
    D5        1.00315  -0.00001   0.00000  -0.00051  -0.00051   1.00264
    D6        2.94242   0.00000   0.00000  -0.00041  -0.00041   2.94201
    D7        1.28715   0.00000   0.00000  -0.00044  -0.00044   1.28671
    D8        3.09377  -0.00001   0.00000  -0.00055  -0.00055   3.09322
    D9       -1.25014   0.00000   0.00000  -0.00046  -0.00046  -1.25060
   D10        2.23795   0.00000   0.00000   0.00013   0.00013   2.23807
   D11       -1.99975   0.00000   0.00000   0.00011   0.00011  -1.99964
   D12        0.24800   0.00000   0.00000   0.00009   0.00009   0.24809
   D13        0.00925   0.00000   0.00000   0.00011   0.00011   0.00935
   D14        2.05474   0.00000   0.00000   0.00009   0.00009   2.05483
   D15       -1.98070   0.00000   0.00000   0.00007   0.00007  -1.98063
   D16       -1.48808   0.00000   0.00000   0.00015   0.00015  -1.48793
   D17        0.55741   0.00000   0.00000   0.00014   0.00014   0.55755
   D18        2.80516   0.00000   0.00000   0.00011   0.00011   2.80527
   D19       -2.10958   0.00000   0.00000   0.00000   0.00000  -2.10958
   D20        2.20522   0.00000   0.00000   0.00005   0.00005   2.20527
   D21       -0.00630   0.00000   0.00000  -0.00007  -0.00007  -0.00637
   D22       -0.00936   0.00000   0.00000  -0.00011  -0.00011  -0.00946
   D23       -1.97774   0.00000   0.00000  -0.00006  -0.00006  -1.97780
   D24        2.09393  -0.00001   0.00000  -0.00019  -0.00019   2.09374
   D25        1.99853   0.00000   0.00000  -0.00008  -0.00008   1.99844
   D26        0.03015   0.00000   0.00000  -0.00004  -0.00004   0.03011
   D27       -2.18137  -0.00001   0.00000  -0.00016  -0.00016  -2.18153
   D28       -2.31610   0.00000   0.00000  -0.00006  -0.00006  -2.31617
   D29        1.81023  -0.00001   0.00000  -0.00021  -0.00021   1.81002
   D30       -0.36896  -0.00001   0.00000  -0.00023  -0.00023  -0.36919
   D31        1.41017  -0.00001   0.00000  -0.00006  -0.00006   1.41011
   D32       -0.74668  -0.00001   0.00000  -0.00020  -0.00020  -0.74688
   D33       -2.92587  -0.00001   0.00000  -0.00022  -0.00022  -2.92610
   D34       -0.02974   0.00000   0.00000   0.00004   0.00004  -0.02970
   D35       -2.18659   0.00000   0.00000  -0.00010  -0.00010  -2.18669
   D36        1.91741   0.00000   0.00000  -0.00013  -0.00013   1.91728
   D37       -0.01001   0.00000   0.00000  -0.00012  -0.00012  -0.01012
   D38       -2.12189   0.00000   0.00000  -0.00005  -0.00005  -2.12194
   D39        2.01568   0.00000   0.00000  -0.00010  -0.00010   2.01557
   D40        0.00992   0.00000   0.00000   0.00011   0.00011   0.01004
   D41        1.62547   0.00000   0.00000   0.00009   0.00009   1.62557
   D42       -2.26277   0.00000   0.00000   0.00005   0.00005  -2.26272
   D43       -0.02989   0.00000   0.00000   0.00004   0.00004  -0.02985
   D44        2.01930   0.00001   0.00000   0.00016   0.00016   2.01947
   D45       -2.05972   0.00000   0.00000   0.00008   0.00008  -2.05964
   D46       -1.65427   0.00000   0.00000   0.00000   0.00000  -1.65427
   D47        0.39492   0.00001   0.00000   0.00013   0.00013   0.39505
   D48        2.59908   0.00000   0.00000   0.00005   0.00005   2.59913
   D49        2.27570   0.00000   0.00000   0.00015   0.00015   2.27585
   D50       -1.95829   0.00001   0.00000   0.00027   0.00027  -1.95801
   D51        0.24587   0.00000   0.00000   0.00019   0.00019   0.24606
   D52        0.02995   0.00000   0.00000  -0.00004  -0.00004   0.02992
   D53        2.22772   0.00000   0.00000   0.00003   0.00003   2.22775
   D54       -1.93392   0.00000   0.00000   0.00003   0.00003  -1.93389
   D55       -1.96779   0.00000   0.00000  -0.00011  -0.00011  -1.96790
   D56        0.22998   0.00000   0.00000  -0.00005  -0.00005   0.22993
   D57        2.35153   0.00000   0.00000  -0.00005  -0.00005   2.35148
   D58        2.07903   0.00000   0.00000  -0.00004  -0.00004   2.07899
   D59       -2.00639   0.00000   0.00000   0.00003   0.00003  -2.00637
   D60        0.11515   0.00000   0.00000   0.00003   0.00003   0.11518
   D61       -0.29038   0.00000   0.00000   0.00017   0.00017  -0.29021
   D62        2.85380   0.00000   0.00000  -0.00029  -0.00029   2.85350
   D63       -2.20213   0.00000   0.00000   0.00008   0.00008  -2.20205
   D64        0.94204   0.00000   0.00000  -0.00038  -0.00038   0.94165
   D65        1.92684   0.00000   0.00000   0.00017   0.00017   1.92701
   D66       -1.21218   0.00000   0.00000  -0.00029  -0.00029  -1.21247
         Item               Value     Threshold  Converged?
 Maximum Force            0.000046     0.000450     YES
 RMS     Force            0.000008     0.000300     YES
 Maximum Displacement     0.001058     0.001800     YES
 RMS     Displacement     0.000171     0.001200     YES
 Predicted change in Energy=-3.145533D-08
 Optimization completed.
    -- Stationary point found.
                           ----------------------------
                           !   Optimized Parameters   !
                           ! (Angstroms and Degrees)  !
 --------------------------                            --------------------------
 ! Name  Definition              Value          Derivative Info.                !
 --------------------------------------------------------------------------------
 ! R1    R(1,2)                  1.5111         -DE/DX =    0.0                 !
 ! R2    R(1,10)                 1.0958         -DE/DX =    0.0                 !
 ! R3    R(1,11)                 1.0952         -DE/DX =    0.0                 !
 ! R4    R(1,12)                 1.0962         -DE/DX =    0.0                 !
 ! R5    R(2,3)                  1.5476         -DE/DX =    0.0                 !
 ! R6    R(2,5)                  1.5609         -DE/DX =    0.0                 !
 ! R7    R(2,7)                  1.5573         -DE/DX =    0.0                 !
 ! R8    R(3,4)                  1.4509         -DE/DX =    0.0                 !
 ! R9    R(3,13)                 1.0924         -DE/DX =    0.0                 !
 ! R10   R(3,14)                 1.0975         -DE/DX =    0.0                 !
 ! R11   R(4,5)                  1.4339         -DE/DX =    0.0                 !
 ! R12   R(5,6)                  1.5496         -DE/DX =    0.0                 !
 ! R13   R(5,15)                 1.0939         -DE/DX =    0.0                 !
 ! R14   R(6,7)                  1.5705         -DE/DX =    0.0                 !
 ! R15   R(6,16)                 1.0925         -DE/DX =    0.0                 !
 ! R16   R(6,17)                 1.0921         -DE/DX =    0.0                 !
 ! R17   R(7,8)                  1.5026         -DE/DX =    0.0                 !
 ! R18   R(7,18)                 1.0984         -DE/DX =    0.0                 !
 ! R19   R(8,9)                  1.2062         -DE/DX =    0.0                 !
 ! R20   R(8,19)                 1.1158         -DE/DX =    0.0                 !
 ! A1    A(2,1,10)             111.5157         -DE/DX =    0.0                 !
 ! A2    A(2,1,11)             111.2505         -DE/DX =    0.0                 !
 ! A3    A(2,1,12)             110.5812         -DE/DX =    0.0                 !
 ! A4    A(10,1,11)            107.8783         -DE/DX =    0.0                 !
 ! A5    A(10,1,12)            107.6343         -DE/DX =    0.0                 !
 ! A6    A(11,1,12)            107.8181         -DE/DX =    0.0                 !
 ! A7    A(1,2,3)              118.0823         -DE/DX =    0.0                 !
 ! A8    A(1,2,5)              126.0157         -DE/DX =    0.0                 !
 ! A9    A(1,2,7)              118.1227         -DE/DX =    0.0                 !
 ! A10   A(3,2,5)               83.6813         -DE/DX =    0.0                 !
 ! A11   A(3,2,7)              114.7348         -DE/DX =    0.0                 !
 ! A12   A(5,2,7)               88.8417         -DE/DX =    0.0                 !
 ! A13   A(2,3,4)               92.1498         -DE/DX =    0.0                 !
 ! A14   A(2,3,13)             117.3698         -DE/DX =    0.0                 !
 ! A15   A(2,3,14)             113.3546         -DE/DX =    0.0                 !
 ! A16   A(4,3,13)             112.8531         -DE/DX =    0.0                 !
 ! A17   A(4,3,14)             111.0083         -DE/DX =    0.0                 !
 ! A18   A(13,3,14)            109.1762         -DE/DX =    0.0                 !
 ! A19   A(3,4,5)               91.9089         -DE/DX =    0.0                 !
 ! A20   A(2,5,4)               92.2547         -DE/DX =    0.0                 !
 ! A21   A(2,5,6)               91.4938         -DE/DX =    0.0                 !
 ! A22   A(2,5,15)             125.3382         -DE/DX =    0.0                 !
 ! A23   A(4,5,6)              112.6895         -DE/DX =    0.0                 !
 ! A24   A(4,5,15)             113.0208         -DE/DX =    0.0                 !
 ! A25   A(6,5,15)             118.1896         -DE/DX =    0.0                 !
 ! A26   A(5,6,7)               88.772          -DE/DX =    0.0                 !
 ! A27   A(5,6,16)             112.4805         -DE/DX =    0.0                 !
 ! A28   A(5,6,17)             115.3777         -DE/DX =    0.0                 !
 ! A29   A(7,6,16)             115.6882         -DE/DX =    0.0                 !
 ! A30   A(7,6,17)             114.1684         -DE/DX =    0.0                 !
 ! A31   A(16,6,17)            109.2828         -DE/DX =    0.0                 !
 ! A32   A(2,7,6)               90.8412         -DE/DX =    0.0                 !
 ! A33   A(2,7,8)              120.775          -DE/DX =    0.0                 !
 ! A34   A(2,7,18)             110.8208         -DE/DX =    0.0                 !
 ! A35   A(6,7,8)              117.8809         -DE/DX =    0.0                 !
 ! A36   A(6,7,18)             109.7714         -DE/DX =    0.0                 !
 ! A37   A(8,7,18)             106.0887         -DE/DX =    0.0                 !
 ! A38   A(7,8,9)              125.3157         -DE/DX =    0.0                 !
 ! A39   A(7,8,19)             113.9278         -DE/DX =    0.0                 !
 ! A40   A(9,8,19)             120.7563         -DE/DX =    0.0                 !
 ! D1    D(10,1,2,3)          -166.525          -DE/DX =    0.0                 !
 ! D2    D(10,1,2,5)           -63.013          -DE/DX =    0.0                 !
 ! D3    D(10,1,2,7)            48.099          -DE/DX =    0.0                 !
 ! D4    D(11,1,2,3)           -46.0358         -DE/DX =    0.0                 !
 ! D5    D(11,1,2,5)            57.4762         -DE/DX =    0.0                 !
 ! D6    D(11,1,2,7)           168.5883         -DE/DX =    0.0                 !
 ! D7    D(12,1,2,3)            73.7483         -DE/DX =    0.0                 !
 ! D8    D(12,1,2,5)           177.2602         -DE/DX =    0.0                 !
 ! D9    D(12,1,2,7)           -71.6277         -DE/DX =    0.0                 !
 ! D10   D(1,2,3,4)            128.2249         -DE/DX =    0.0                 !
 ! D11   D(1,2,3,13)          -114.5771         -DE/DX =    0.0                 !
 ! D12   D(1,2,3,14)            14.2096         -DE/DX =    0.0                 !
 ! D13   D(5,2,3,4)              0.5297         -DE/DX =    0.0                 !
 ! D14   D(5,2,3,13)           117.7277         -DE/DX =    0.0                 !
 ! D15   D(5,2,3,14)          -113.4856         -DE/DX =    0.0                 !
 ! D16   D(7,2,3,4)            -85.2606         -DE/DX =    0.0                 !
 ! D17   D(7,2,3,13)            31.9373         -DE/DX =    0.0                 !
 ! D18   D(7,2,3,14)           160.724          -DE/DX =    0.0                 !
 ! D19   D(1,2,5,4)           -120.8701         -DE/DX =    0.0                 !
 ! D20   D(1,2,5,6)            126.35           -DE/DX =    0.0                 !
 ! D21   D(1,2,5,15)            -0.3607         -DE/DX =    0.0                 !
 ! D22   D(3,2,5,4)             -0.536          -DE/DX =    0.0                 !
 ! D23   D(3,2,5,6)           -113.316          -DE/DX =    0.0                 !
 ! D24   D(3,2,5,15)           119.9734         -DE/DX =    0.0                 !
 ! D25   D(7,2,5,4)            114.5072         -DE/DX =    0.0                 !
 ! D26   D(7,2,5,6)              1.7272         -DE/DX =    0.0                 !
 ! D27   D(7,2,5,15)          -124.9834         -DE/DX =    0.0                 !
 ! D28   D(1,2,7,6)           -132.703          -DE/DX =    0.0                 !
 ! D29   D(1,2,7,8)            103.7183         -DE/DX =    0.0                 !
 ! D30   D(1,2,7,18)           -21.14           -DE/DX =    0.0                 !
 ! D31   D(3,2,7,6)             80.7968         -DE/DX =    0.0                 !
 ! D32   D(3,2,7,8)            -42.7818         -DE/DX =    0.0                 !
 ! D33   D(3,2,7,18)          -167.6401         -DE/DX =    0.0                 !
 ! D34   D(5,2,7,6)             -1.7037         -DE/DX =    0.0                 !
 ! D35   D(5,2,7,8)           -125.2824         -DE/DX =    0.0                 !
 ! D36   D(5,2,7,18)           109.8593         -DE/DX =    0.0                 !
 ! D37   D(2,3,4,5)             -0.5735         -DE/DX =    0.0                 !
 ! D38   D(13,3,4,5)          -121.5753         -DE/DX =    0.0                 !
 ! D39   D(14,3,4,5)           115.4898         -DE/DX =    0.0                 !
 ! D40   D(3,4,5,2)              0.5686         -DE/DX =    0.0                 !
 ! D41   D(3,4,5,6)             93.1328         -DE/DX =    0.0                 !
 ! D42   D(3,4,5,15)          -129.647          -DE/DX =    0.0                 !
 ! D43   D(2,5,6,7)             -1.7127         -DE/DX =    0.0                 !
 ! D44   D(2,5,6,16)           115.6976         -DE/DX =    0.0                 !
 ! D45   D(2,5,6,17)          -118.0135         -DE/DX =    0.0                 !
 ! D46   D(4,5,6,7)            -94.7829         -DE/DX =    0.0                 !
 ! D47   D(4,5,6,16)            22.6274         -DE/DX =    0.0                 !
 ! D48   D(4,5,6,17)           148.9163         -DE/DX =    0.0                 !
 ! D49   D(15,5,6,7)           130.3882         -DE/DX =    0.0                 !
 ! D50   D(15,5,6,16)         -112.2015         -DE/DX =    0.0                 !
 ! D51   D(15,5,6,17)           14.0874         -DE/DX =    0.0                 !
 ! D52   D(5,6,7,2)              1.7162         -DE/DX =    0.0                 !
 ! D53   D(5,6,7,8)            127.6389         -DE/DX =    0.0                 !
 ! D54   D(5,6,7,18)          -110.8054         -DE/DX =    0.0                 !
 ! D55   D(16,6,7,2)          -112.7458         -DE/DX =    0.0                 !
 ! D56   D(16,6,7,8)            13.1768         -DE/DX =    0.0                 !
 ! D57   D(16,6,7,18)          134.7326         -DE/DX =    0.0                 !
 ! D58   D(17,6,7,2)           119.1194         -DE/DX =    0.0                 !
 ! D59   D(17,6,7,8)          -114.9579         -DE/DX =    0.0                 !
 ! D60   D(17,6,7,18)            6.5978         -DE/DX =    0.0                 !
 ! D61   D(2,7,8,9)            -16.6373         -DE/DX =    0.0                 !
 ! D62   D(2,7,8,19)           163.5104         -DE/DX =    0.0                 !
 ! D63   D(6,7,8,9)           -126.173          -DE/DX =    0.0                 !
 ! D64   D(6,7,8,19)            53.9747         -DE/DX =    0.0                 !
 ! D65   D(18,7,8,9)           110.3997         -DE/DX =    0.0                 !
 ! D66   D(18,7,8,19)          -69.4526         -DE/DX =    0.0                 !
 --------------------------------------------------------------------------------
 GradGradGradGradGradGradGradGradGradGradGradGradGradGradGradGradGradGrad

                          Input orientation:                          
 ---------------------------------------------------------------------
 Center     Atomic      Atomic             Coordinates (Angstroms)
 Number     Number       Type             X           Y           Z
 ---------------------------------------------------------------------
      1          6           0        0.144535   -1.201047   -3.205599
      2          6           0       -0.165658   -0.568278   -1.868845
      3          6           0       -0.585033    0.921235   -1.847705
      4          8           0       -1.770588    0.632847   -1.062585
      5          6           0       -1.472484   -0.769501   -1.039280
      6          6           0       -0.661348   -1.187424    0.213152
      7          6           0        0.655067   -1.031816   -0.629143
      8          6           0        1.751190   -0.171273   -0.067231
      9          8           0        2.277145    0.750589   -0.640393
     10          1           0        0.195251   -2.293156   -3.131193
     11          1           0       -0.618235   -0.949847   -3.950227
     12          1           0        1.111307   -0.848686   -3.583694
     13          1           0        0.088987    1.625800   -1.355139
     14          1           0       -0.853989    1.311602   -2.837579
     15          1           0       -2.321187   -1.392264   -1.336784
     16          1           0       -0.779642   -0.484560    1.041165
     17          1           0       -0.844899   -2.202197    0.572490
     18          1           0        1.102913   -2.019294   -0.804420
     19          1           0        2.065213   -0.455179    0.965152
 ---------------------------------------------------------------------
                    Distance matrix (angstroms):
                    1          2          3          4          5
     1  C    0.000000
     2  C    1.511135   0.000000
     3  C    2.623019   1.547570   0.000000
     4  O    3.409306   2.160684   1.450904   0.000000
     5  C    2.737503   1.560917   2.073574   1.433872   0.000000
     6  C    3.512476   2.227950   2.949475   2.484211   1.549576
     7  C    2.631997   1.557343   2.614795   2.973681   2.182544
     8  C    3.673027   2.660402   3.133944   3.747034   3.419771
     9  O    3.864866   3.035752   3.111074   4.071394   4.065649
    10  H    1.095816   2.167714   3.548027   4.087194   3.078793
    11  H    1.095167   2.163925   2.814721   3.488741   3.039060
    12  H    1.096249   2.156381   3.003972   4.105636   3.627161
    13  H    3.379105   2.267756   1.092399   2.128277   2.876704
    14  H    2.728716   2.224004   1.097531   2.109849   2.819114
    15  H    3.099810   2.368195   2.937270   2.116465   1.093911
    16  H    4.404823   2.975255   3.218649   2.579988   2.211215
    17  H    4.031778   3.015157   3.959887   3.401153   2.245948
    18  H    2.711767   2.201754   3.547438   3.918865   2.872248
    19  H    4.651934   3.608479   4.102497   4.473129   4.078216
                    6          7          8          9         10
     6  C    0.000000
     7  C    1.570549   0.000000
     8  C    2.632778   1.502586   0.000000
     9  O    3.622040   2.410027   1.206223   0.000000
    10  H    3.625058   2.839483   4.038713   4.450028   0.000000
    11  H    4.170375   3.557754   4.614977   4.714839   1.771174
    12  H    4.203937   2.995173   3.637837   3.546813   1.769297
    13  H    3.307079   2.812551   2.766063   2.462700   4.303938
    14  H    3.948316   3.556128   4.081753   3.866052   3.765819
    15  H    2.280203   3.080385   4.436986   5.120688   3.219312
    16  H    1.092529   2.268879   2.780612   3.700970   4.650808
    17  H    1.092053   2.250248   3.357615   4.465108   3.848045
    18  H    2.200016   1.098362   2.092580   3.012968   2.512514
    19  H    2.921613   2.205176   1.115808   2.019051   4.863637
                   11         12         13         14         15
    11  H    0.000000
    12  H    1.770846   0.000000
    13  H    3.724058   3.483487   0.000000
    14  H    2.531347   3.014286   1.784812   0.000000
    15  H    3.150534   4.138369   3.862382   3.422856   0.000000
    16  H    5.015630   5.009751   3.309141   4.275088   2.975724
    17  H    4.698375   4.788799   4.386509   4.896471   2.545730
    18  H    3.741947   3.015752   3.823356   4.365554   3.521511
    19  H    5.621970   4.664417   3.690487   5.109209   5.041582
                   16         17         18         19
    16  H    0.000000
    17  H    1.781627   0.000000
    18  H    3.050509   2.392343   0.000000
    19  H    2.846022   3.416872   2.550267   0.000000
 Stoichiometry    C7H10O2
 Framework group  C1[X(C7H10O2)]
 Deg. of freedom    51
 Full point group                 C1      NOp   1
 Largest Abelian subgroup         C1      NOp   1
 Largest concise Abelian subgroup C1      NOp   1
                         Standard orientation:                         
 ---------------------------------------------------------------------
 Center     Atomic      Atomic             Coordinates (Angstroms)
 Number     Number       Type             X           Y           Z
 ---------------------------------------------------------------------
      1          6           0       -0.805916    1.900484   -0.868109
      2          6           0       -0.481312    0.570440   -0.228466
      3          6           0       -0.687809    0.426708    1.298515
      4          8           0       -1.483196   -0.775404    1.132962
      5          6           0       -1.359411   -0.718379   -0.294418
      6          6           0       -0.166374   -1.553006   -0.824746
      7          6           0        0.710246   -0.250021   -0.804965
      8          6           0        2.028319   -0.300766   -0.085332
      9          8           0        2.379688    0.461672    0.780810
     10          1           0       -0.851934    1.820736   -1.960050
     11          1           0       -1.769986    2.284498   -0.518120
     12          1           0       -0.039115    2.644084   -0.621456
     13          1           0        0.201237    0.265953    1.912593
     14          1           0       -1.285665    1.237087    1.734896
     15          1           0       -2.319943   -0.803821   -0.810867
     16          1           0        0.136560   -2.338221   -0.128120
     17          1           0       -0.302521   -1.985247   -1.818331
     18          1           0        0.936895    0.060948   -1.833716
     19          1           0        2.696085   -1.128930   -0.421873
 ---------------------------------------------------------------------
 Rotational constants (GHZ):      2.2619658      1.5054171      1.3757377
 1\1\GINC-ALCHEMY-MG\FOpt\RB3LYP\6-31G(2df,p)\C7H10O2\PUCK\27-Jan-2020\
 0\\# b3lyp 6-31G(2df,p) opt Freq\\titel\\0,1\C,0.1445351981,-1.2010465
 019,-3.2055990125\C,-0.1656583808,-0.5682779953,-1.8688448668\C,-0.585
 0327826,0.9212354873,-1.8477049669\O,-1.7705876536,0.6328471904,-1.062
 5850658\C,-1.4724842794,-0.7695006912,-1.0392797527\C,-0.6613477939,-1
 .1874244845,0.2131517097\C,0.6550674862,-1.0318158859,-0.6291434028\C,
 1.7511904111,-0.1712733319,-0.0672305089\O,2.277144842,0.7505893017,-0
 .6403931797\H,0.1952511021,-2.2931563272,-3.131192922\H,-0.618234729,-
 0.9498470407,-3.9502273517\H,1.1113072775,-0.8486861789,-3.5836940855\
 H,0.0889873595,1.6258004862,-1.3551392901\H,-0.8539894572,1.3116016167
 ,-2.837578739\H,-2.3211872623,-1.3922644502,-1.3367840117\H,-0.7796422
 201,-0.4845596325,1.0411653087\H,-0.8448994047,-2.2021972245,0.5724896
 63\H,1.1029126733,-2.0192936143,-0.8044195873\H,2.0652131038,-0.455178
 9432,0.9651522321\\Version=ES64L-G09RevD.01\State=1-A\HF=-423.160327\R
 MSD=5.271e-09\RMSF=2.050e-05\Dipole=-0.0566779,-1.1289605,-0.0096802\Q
 uadrupole=-4.3341042,0.8389034,3.4952008,-0.8858907,0.9573476,-1.31888
 1\PG=C01 [X(C7H10O2)]\\@


 TOM, TOM, THE BURGLAR'S SON
 STOLE A MACHINE AND AWAY HE RUN
 THE JOB WAS NEAT, BUT TOM GOT BEAT
 BY THE TIME HE GOT HOME IT WAS OBSOLETE.
 Job cpu time:       0 days  0 hours  6 minutes 54.0 seconds.
 File lengths (MBytes):  RWF=     52 Int=      0 D2E=      0 Chk=      7 Scr=      1
 Normal termination of Gaussian 09 at Mon Jan 27 18:51:05 2020.
 Link1:  Proceeding to internal job step number  2.
 ----------------------------------------------------------------------
 #N Geom=AllCheck Guess=TCheck SCRF=Check GenChk RB3LYP/6-31G(2df,p) Fr
 eq
 ----------------------------------------------------------------------
 1/10=4,29=7,30=1,38=1,40=1/1,3;
 2/12=2,40=1/2;
 3/5=1,6=6,7=104,11=2,14=-4,16=1,25=1,30=1,70=2,71=2,74=-5,116=1,140=1/1,2,3;
 4/5=101/1;
 5/5=2,98=1/2;
 8/6=4,10=90,11=11/1;
 11/6=1,8=1,9=11,15=111,16=1/1,2,10;
 10/6=1/2;
 6/7=2,8=2,9=2,10=2,18=1,28=1/1;
 7/8=1,10=1,25=1/1,2,3,16;
 1/10=4,30=1/3;
 99//99;
 Structure from the checkpoint file:  "/scratch/puck/g09_1581501a-a539-46b4-b91a-faa5dea30293/Gau-54708.chk"
 -----
 titel
 -----
 Charge =  0 Multiplicity = 1
 Redundant internal coordinates found in file.
 C,0,0.1445351981,-1.2010465019,-3.2055990125
 C,0,-0.1656583808,-0.5682779953,-1.8688448668
 C,0,-0.5850327826,0.9212354873,-1.8477049669
 O,0,-1.7705876536,0.6328471904,-1.0625850658
 C,0,-1.4724842794,-0.7695006912,-1.0392797527
 C,0,-0.6613477939,-1.1874244845,0.2131517097
 C,0,0.6550674862,-1.0318158859,-0.6291434028
 C,0,1.7511904111,-0.1712733319,-0.0672305089
 O,0,2.277144842,0.7505893017,-0.6403931797
 H,0,0.1952511021,-2.2931563272,-3.131192922
 H,0,-0.618234729,-0.9498470407,-3.9502273517
 H,0,1.1113072775,-0.8486861789,-3.5836940855
 H,0,0.0889873595,1.6258004862,-1.3551392901
 H,0,-0.8539894572,1.3116016167,-2.837578739
 H,0,-2.3211872623,-1.3922644502,-1.3367840117
 H,0,-0.7796422201,-0.4845596325,1.0411653087
 H,0,-0.8448994047,-2.2021972245,0.572489663
 H,0,1.1029126733,-2.0192936143,-0.8044195873
 H,0,2.0652131038,-0.4551789432,0.9651522321
 Recover connectivity data from disk.

 GradGradGradGradGradGradGradGradGradGradGradGradGradGradGradGradGradGrad
 Berny optimization.
 Initialization pass.
                           ----------------------------
                           !    Initial Parameters    !
                           ! (Angstroms and Degrees)  !
 --------------------------                            --------------------------
 ! Name  Definition              Value          Derivative Info.                !
 --------------------------------------------------------------------------------
 ! R1    R(1,2)                  1.5111         calculate D2E/DX2 analytically  !
 ! R2    R(1,10)                 1.0958         calculate D2E/DX2 analytically  !
 ! R3    R(1,11)                 1.0952         calculate D2E/DX2 analytically  !
 ! R4    R(1,12)                 1.0962         calculate D2E/DX2 analytically  !
 ! R5    R(2,3)                  1.5476         calculate D2E/DX2 analytically  !
 ! R6    R(2,5)                  1.5609         calculate D2E/DX2 analytically  !
 ! R7    R(2,7)                  1.5573         calculate D2E/DX2 analytically  !
 ! R8    R(3,4)                  1.4509         calculate D2E/DX2 analytically  !
 ! R9    R(3,13)                 1.0924         calculate D2E/DX2 analytically  !
 ! R10   R(3,14)                 1.0975         calculate D2E/DX2 analytically  !
 ! R11   R(4,5)                  1.4339         calculate D2E/DX2 analytically  !
 ! R12   R(5,6)                  1.5496         calculate D2E/DX2 analytically  !
 ! R13   R(5,15)                 1.0939         calculate D2E/DX2 analytically  !
 ! R14   R(6,7)                  1.5705         calculate D2E/DX2 analytically  !
 ! R15   R(6,16)                 1.0925         calculate D2E/DX2 analytically  !
 ! R16   R(6,17)                 1.0921         calculate D2E/DX2 analytically  !
 ! R17   R(7,8)                  1.5026         calculate D2E/DX2 analytically  !
 ! R18   R(7,18)                 1.0984         calculate D2E/DX2 analytically  !
 ! R19   R(8,9)                  1.2062         calculate D2E/DX2 analytically  !
 ! R20   R(8,19)                 1.1158         calculate D2E/DX2 analytically  !
 ! A1    A(2,1,10)             111.5157         calculate D2E/DX2 analytically  !
 ! A2    A(2,1,11)             111.2505         calculate D2E/DX2 analytically  !
 ! A3    A(2,1,12)             110.5812         calculate D2E/DX2 analytically  !
 ! A4    A(10,1,11)            107.8783         calculate D2E/DX2 analytically  !
 ! A5    A(10,1,12)            107.6343         calculate D2E/DX2 analytically  !
 ! A6    A(11,1,12)            107.8181         calculate D2E/DX2 analytically  !
 ! A7    A(1,2,3)              118.0823         calculate D2E/DX2 analytically  !
 ! A8    A(1,2,5)              126.0157         calculate D2E/DX2 analytically  !
 ! A9    A(1,2,7)              118.1227         calculate D2E/DX2 analytically  !
 ! A10   A(3,2,5)               83.6813         calculate D2E/DX2 analytically  !
 ! A11   A(3,2,7)              114.7348         calculate D2E/DX2 analytically  !
 ! A12   A(5,2,7)               88.8417         calculate D2E/DX2 analytically  !
 ! A13   A(2,3,4)               92.1498         calculate D2E/DX2 analytically  !
 ! A14   A(2,3,13)             117.3698         calculate D2E/DX2 analytically  !
 ! A15   A(2,3,14)             113.3546         calculate D2E/DX2 analytically  !
 ! A16   A(4,3,13)             112.8531         calculate D2E/DX2 analytically  !
 ! A17   A(4,3,14)             111.0083         calculate D2E/DX2 analytically  !
 ! A18   A(13,3,14)            109.1762         calculate D2E/DX2 analytically  !
 ! A19   A(3,4,5)               91.9089         calculate D2E/DX2 analytically  !
 ! A20   A(2,5,4)               92.2547         calculate D2E/DX2 analytically  !
 ! A21   A(2,5,6)               91.4938         calculate D2E/DX2 analytically  !
 ! A22   A(2,5,15)             125.3382         calculate D2E/DX2 analytically  !
 ! A23   A(4,5,6)              112.6895         calculate D2E/DX2 analytically  !
 ! A24   A(4,5,15)             113.0208         calculate D2E/DX2 analytically  !
 ! A25   A(6,5,15)             118.1896         calculate D2E/DX2 analytically  !
 ! A26   A(5,6,7)               88.772          calculate D2E/DX2 analytically  !
 ! A27   A(5,6,16)             112.4805         calculate D2E/DX2 analytically  !
 ! A28   A(5,6,17)             115.3777         calculate D2E/DX2 analytically  !
 ! A29   A(7,6,16)             115.6882         calculate D2E/DX2 analytically  !
 ! A30   A(7,6,17)             114.1684         calculate D2E/DX2 analytically  !
 ! A31   A(16,6,17)            109.2828         calculate D2E/DX2 analytically  !
 ! A32   A(2,7,6)               90.8412         calculate D2E/DX2 analytically  !
 ! A33   A(2,7,8)              120.775          calculate D2E/DX2 analytically  !
 ! A34   A(2,7,18)             110.8208         calculate D2E/DX2 analytically  !
 ! A35   A(6,7,8)              117.8809         calculate D2E/DX2 analytically  !
 ! A36   A(6,7,18)             109.7714         calculate D2E/DX2 analytically  !
 ! A37   A(8,7,18)             106.0887         calculate D2E/DX2 analytically  !
 ! A38   A(7,8,9)              125.3157         calculate D2E/DX2 analytically  !
 ! A39   A(7,8,19)             113.9278         calculate D2E/DX2 analytically  !
 ! A40   A(9,8,19)             120.7563         calculate D2E/DX2 analytically  !
 ! D1    D(10,1,2,3)          -166.525          calculate D2E/DX2 analytically  !
 ! D2    D(10,1,2,5)           -63.013          calculate D2E/DX2 analytically  !
 ! D3    D(10,1,2,7)            48.099          calculate D2E/DX2 analytically  !
 ! D4    D(11,1,2,3)           -46.0358         calculate D2E/DX2 analytically  !
 ! D5    D(11,1,2,5)            57.4762         calculate D2E/DX2 analytically  !
 ! D6    D(11,1,2,7)           168.5883         calculate D2E/DX2 analytically  !
 ! D7    D(12,1,2,3)            73.7483         calculate D2E/DX2 analytically  !
 ! D8    D(12,1,2,5)           177.2602         calculate D2E/DX2 analytically  !
 ! D9    D(12,1,2,7)           -71.6277         calculate D2E/DX2 analytically  !
 ! D10   D(1,2,3,4)            128.2249         calculate D2E/DX2 analytically  !
 ! D11   D(1,2,3,13)          -114.5771         calculate D2E/DX2 analytically  !
 ! D12   D(1,2,3,14)            14.2096         calculate D2E/DX2 analytically  !
 ! D13   D(5,2,3,4)              0.5297         calculate D2E/DX2 analytically  !
 ! D14   D(5,2,3,13)           117.7277         calculate D2E/DX2 analytically  !
 ! D15   D(5,2,3,14)          -113.4856         calculate D2E/DX2 analytically  !
 ! D16   D(7,2,3,4)            -85.2606         calculate D2E/DX2 analytically  !
 ! D17   D(7,2,3,13)            31.9373         calculate D2E/DX2 analytically  !
 ! D18   D(7,2,3,14)           160.724          calculate D2E/DX2 analytically  !
[...]
 0.00611632,0.00138450,0.00019981,0.03246341,-0.04911052,-0.01813359,-0
 .03797502,-0.06052819,0.02290234,-0.03929146,0.34738190,0.00118400,-0.
 00236655,0.00060019,0.03589170,-0.01997575,-0.00797526,0.05569527,-0.0
 0243695,-0.10144619,-0.11902749,-0.02510521,0.16482988,0.00485421,0.00
 471742,0.00203894,-0.12006336,-0.03588105,0.03114113,-0.01921909,-0.04
 074413,0.02148153,-0.07203093,0.05795959,-0.00735217,0.58100342,0.0128
 4645,0.00048038,-0.00222405,-0.01349172,-0.03839204,-0.00866835,-0.038
 70739,-0.06798059,0.02281740,0.01379730,-0.18990750,0.01165466,0.11695
 791,0.48994099,0.01676090,0.00709119,-0.01005561,0.05041242,0.00830460
 ,-0.07612267,0.02169058,0.03588377,-0.00633206,0.00020814,-0.02134122,
 -0.06206945,0.05941605,0.00523755,0.39289059,-0.00178737,-0.00099824,0
 .00025846,-0.00838762,-0.00195553,0.01462151,-0.00138672,-0.00017187,-
 0.00142882,0.00070478,0.00953729,-0.00239407,-0.08209758,0.00650670,-0
 .06078896,0.33433877,0.00068715,-0.00117703,0.00088197,-0.00959045,0.0
 0935673,0.01803974,0.00501951,-0.00044158,-0.00178646,0.01491989,-0.02
 630417,0.03262630,0.00545342,-0.07531245,0.00384357,0.02079476,0.60486
 225,0.00045954,0.00264438,-0.00264580,0.01277729,0.01668675,-0.0640979
 6,-0.00054733,0.00037215,0.00063095,-0.00234737,0.01099277,0.00293801,
 -0.04896393,0.00651479,-0.12785050,-0.03704444,0.01720064,0.53905799,0
 .00468074,-0.00124144,0.00235139,-0.07514009,0.01174902,-0.03630020,-0
 .00252926,0.00232612,-0.00187716,0.00027901,0.00159552,0.00248158,-0.0
 7793279,0.00735427,-0.01695988,-0.10630417,-0.01294878,0.03946934,0.48
 488323,-0.01189596,0.00325843,-0.00781656,0.02039208,-0.08892305,0.018
 79799,0.01898347,-0.00706615,0.02462080,-0.00136135,0.00332267,-0.0019
 9029,0.00132084,0.00738479,-0.00054335,-0.00500080,-0.06929552,-0.0070
 2860,-0.02918514,0.51780306,-0.01660965,0.00660903,-0.02193806,-0.0484
 6862,0.01141573,-0.11776462,-0.00327720,0.00508933,0.00186987,0.000035
 75,0.00296703,-0.00123900,-0.01390911,0.00494738,-0.00878914,0.0532787
 6,0.00000976,-0.07770505,0.04630083,0.02880791,0.39623555,0.00120471,-
 0.00059284,0.00064431,-0.01374347,-0.00238377,-0.00795681,0.00155997,0
 .00191138,-0.00005623,-0.00065992,-0.00207324,0.00107007,-0.00482111,0
 .00121355,-0.00342356,-0.01853694,-0.01198121,-0.00471738,-0.13216474,
 -0.03389456,-0.04031910,0.45148955,0.00250667,-0.00149771,0.00064898,0
 .00727425,0.01364299,-0.00110418,0.00360863,0.00374102,0.00050988,-0.0
 0160653,-0.00578233,0.00077908,0.00262129,0.00366516,0.00058477,-0.008
 39891,-0.00434984,0.00728257,-0.02820063,-0.10313452,-0.02504691,0.267
 29374,0.66284599,-0.00296177,0.00077476,-0.00118745,-0.01804286,-0.021
 01790,-0.00927221,-0.00036119,-0.00152617,0.00193064,0.00088049,0.0005
 2027,0.00046291,-0.00014561,-0.00009266,-0.00272132,0.00905153,0.01766
 904,0.00993515,-0.04506462,-0.02607674,-0.12534924,-0.01189075,-0.2543
 9276,0.60570042,-0.00037903,-0.00000100,0.00031755,0.00363543,0.002656
 46,0.00331441,-0.00130808,0.00144881,-0.00032212,-0.00077123,0.0001356
 6,-0.00022148,0.00129276,-0.00007030,0.00077641,0.00062225,-0.00312475
 ,-0.00080374,-0.00849709,-0.04211758,0.01200814,-0.21213574,-0.2370375
 8,0.12807405,0.20798596,-0.00076095,0.00067836,-0.00056287,0.00119995,
 -0.00105528,0.00136120,-0.00241437,-0.00371256,-0.00026552,0.00171003,
 0.00456483,-0.00125209,0.00037825,-0.00356517,0.00091958,0.00386689,-0
 .00360475,-0.00687159,-0.03864522,-0.02693820,0.01890042,-0.23788211,-
 0.47705994,0.25657881,0.28521826,0.51575993,0.00107357,-0.00023482,-0.
 00010135,0.00258478,0.00364486,0.00028673,0.00108911,0.00068167,-0.000
 28572,-0.00125454,-0.00186094,0.00069847,-0.00028844,0.00108041,0.0003
 4217,-0.00303932,-0.00396000,0.00013021,0.00123114,0.00397199,0.024695
 74,0.12931734,0.25632021,-0.25579264,-0.14613508,-0.30066230,0.2500556
 0,-0.04668497,0.01074734,-0.00143733,-0.00171548,0.00793720,-0.0007104
 0,0.00115339,0.00102201,0.00150374,-0.00032142,-0.00016292,0.00008421,
 0.00065677,0.00060146,-0.00064316,0.00002949,-0.00003513,-0.00009623,0
 .00019372,-0.00066834,-0.00013828,-0.00009182,-0.00013999,0.00004545,0
 .00005986,0.00002887,-0.00017981,0.04626736,0.01084780,-0.30316075,0.0
 2092182,0.00128298,-0.01456062,0.00131805,-0.00157640,0.00143358,-0.00
 177456,0.00118478,0.00083681,-0.00069727,0.00043649,-0.00056689,0.0001
 9201,0.00006356,0.00007137,-0.00002745,0.00051512,0.00060122,0.0009095
 5,-0.00057781,-0.00024976,0.00020101,0.00008181,0.00029412,-0.00026868
 ,-0.01309620,0.33143716,-0.00158116,0.02210899,-0.04921448,0.00056905,
 -0.03200002,0.00195978,-0.00087401,-0.00028101,-0.00486470,0.00144243,
 0.00017933,-0.00027102,0.00029988,-0.00007997,0.00125796,-0.00005719,-
 0.00014304,0.00023868,0.00066818,-0.00077509,0.00170165,-0.00041358,-0
 .00009959,0.00009497,0.00009657,0.00022567,-0.00007854,0.00025690,-0.0
 2094291,0.05265452,-0.17624770,0.04352878,-0.12360914,0.00517059,-0.00
 184253,0.00532808,0.00051036,0.00040325,-0.00039740,0.00011244,-0.0006
 0288,0.00004714,0.00051777,-0.00012152,-0.00053790,0.00034402,-0.00018
 544,-0.00006973,0.00091809,0.00082351,0.00231510,-0.00007931,-0.000248
 81,0.00057815,0.00002782,-0.00006276,-0.00023748,-0.00087549,-0.000258
 14,0.00055014,0.18851334,0.04413690,-0.06199060,0.04128796,-0.01100680
 ,0.00202578,-0.00928846,-0.00066041,0.00101845,-0.00096262,-0.00047940
 ,-0.00025862,0.00032010,0.00057438,0.00095861,0.00036543,-0.00022115,0
 .00021050,-0.00020869,0.00112535,-0.00088826,-0.00167886,-0.00016679,0
 .00037465,-0.00010288,0.00009009,-0.00009938,-0.00006006,0.02313346,-0
 .00666322,0.02142910,-0.04866867,0.06360515,-0.12254574,0.04050767,-0.
 16381320,-0.02192529,0.00715412,-0.02175732,-0.00035267,0.00154497,0.0
 0028399,-0.00001364,-0.00025509,0.00036631,-0.00017529,0.00109606,0.00
 057516,-0.00031747,0.00053236,-0.00021779,0.00136653,-0.00423942,-0.00
 263318,0.00097486,0.00143397,-0.00111651,-0.00027044,-0.00056588,0.000
 40764,-0.00114037,0.00060771,-0.00178237,0.13523303,-0.04333886,0.1809
 1151,-0.24903510,-0.07555929,0.07595050,-0.00695149,-0.00114909,0.0033
 0210,-0.00023785,-0.00009131,0.00036172,0.00009779,0.00096314,-0.00023
 142,0.00297969,-0.00018351,-0.00092963,-0.00002051,0.00011150,0.000580
 94,0.00047392,0.00034955,0.00069824,-0.00015008,-0.00053083,0.00036617
 ,0.00006361,0.00014948,-0.00033917,0.00195946,0.00092634,-0.00151232,-
 0.01924068,-0.00792291,0.00790307,0.26999868,-0.07544200,-0.07462101,0
 .02871596,0.01547588,0.00521465,-0.00538204,0.00015100,0.00082715,0.00
 071980,-0.00007762,-0.00037443,0.00032309,-0.00058227,-0.00043001,-0.0
 0222622,0.00032839,-0.00023867,-0.00026260,-0.00050077,0.00043224,0.00
 029423,0.00006980,0.00040281,-0.00013220,-0.00004815,-0.00025137,0.000
 30853,-0.02922639,-0.01011284,0.01060177,0.00779646,0.00199318,-0.0032
 7396,0.08250642,0.07726535,0.07618967,0.02895114,-0.07474166,0.0308717
 6,0.01085364,-0.01310757,0.00046945,0.00011614,0.00057348,0.00012368,-
 0.00198999,-0.00004017,-0.00299518,-0.00189607,-0.00170520,0.00079063,
 0.00016672,-0.00021730,-0.00092135,0.00041857,0.00112233,0.00056495,0.
 00087214,-0.00061547,-0.00046687,-0.00032202,0.00092881,0.00215306,0.0
 0104730,-0.00157314,-0.01933829,-0.00796662,0.00790293,-0.08656556,-0.
 02984092,0.08180275,0.00002132,0.00141568,-0.00042880,0.01008051,0.005
 37181,0.00721408,-0.14340874,-0.09874844,-0.07634997,-0.01915038,-0.01
 832371,-0.00201518,-0.00303007,0.00264170,-0.00174227,0.00009779,-0.00
 020897,-0.00006340,-0.00000690,-0.00159401,0.00020569,0.00019477,0.002
 16464,-0.00086870,-0.00282132,0.00003260,-0.00068976,-0.00039697,0.000
 39896,0.00051889,0.00000181,0.00005235,-0.00007420,-0.00007380,-0.0000
 8352,0.00001106,0.15942605,-0.00050424,-0.00287972,0.00152799,-0.01513
 888,-0.01242553,-0.01214416,-0.09906287,-0.15757445,-0.08041215,-0.005
 04391,-0.00087353,0.00174073,-0.00117612,-0.00260952,-0.00015904,-0.00
 006688,-0.00021637,-0.00002886,0.00031562,0.00235604,-0.00054203,-0.00
 077502,-0.00335251,0.00192490,-0.00049368,0.00261170,-0.00116041,0.000
 40146,-0.00054793,-0.00096484,-0.00007297,0.00001267,0.00000222,0.0001
 4184,0.00012279,-0.00021583,0.11496695,0.16688469,-0.00002828,-0.00058
 646,-0.00017687,-0.00172397,0.00245165,-0.00014445,-0.07921798,-0.0851
 9898,-0.11675772,0.01627863,0.01629968,0.01082844,0.00247435,-0.000513
 88,-0.00018029,0.00000142,0.00025952,-0.00014143,0.00022973,0.00055747
 ,0.00044844,-0.00111494,0.00045066,0.00005278,-0.00097008,0.00070620,-
 0.00078386,0.00036425,-0.00016948,0.00007175,0.00017399,0.00017417,0.0
 0043537,0.00005273,-0.00006216,-0.00002148,0.08113575,0.08277197,0.119
 00413,0.00098694,-0.00095815,-0.00065163,-0.00277452,0.00281375,-0.011
 72397,-0.06971102,0.02656734,-0.07023075,0.00154154,-0.01725662,0.0332
 0637,-0.00267402,0.00360575,0.00287572,0.00015072,-0.00157693,-0.00000
 653,-0.00005964,0.00248794,0.00064486,0.00025948,-0.00040237,0.0006264
 7,-0.00042890,0.00049262,-0.00011783,0.00003716,-0.00013750,0.00012768
 ,0.00021546,0.00006955,0.00039960,-0.00015498,-0.00008095,-0.00006885,
 -0.00160775,0.00668570,-0.01759572,0.07410575,0.00090510,0.00252433,0.
 00154100,0.01079832,-0.00983356,0.02409331,0.02380834,-0.08136385,0.07
 445797,-0.00470730,0.00130628,0.00739592,-0.00052663,0.00002954,-0.000
 63924,-0.00037848,0.00047892,-0.00018900,-0.00051360,-0.00418075,-0.00
 195250,-0.00116660,-0.00118348,-0.00008870,0.00003820,0.00115624,-0.00
 038432,-0.00038182,0.00040160,-0.00009238,-0.00044243,-0.00038883,-0.0
 0086180,0.00030965,-0.00014910,-0.00044833,-0.00599221,0.00858256,-0.0
 1836463,-0.02218728,0.08325918,-0.00006078,-0.00074612,0.00064924,-0.0
 0057552,-0.00137119,0.00348982,-0.06843015,0.07316008,-0.24911113,0.01
 114206,0.01162593,-0.01523974,0.00076865,-0.00382231,-0.00259275,0.000
 06500,0.00087082,-0.00012784,0.00057774,-0.00121192,0.00112058,-0.0000
 0315,-0.00025972,0.00026309,-0.00047997,0.00041714,-0.00013786,0.00015
 776,-0.00003756,0.00019542,0.00016701,0.00027120,0.00071570,-0.0000057
 4,0.00032021,0.00026968,-0.00666050,0.00659097,-0.01248841,0.06332848,
 -0.08626665,0.27298799,0.00186890,0.00014818,-0.00106523,-0.00587034,-
 0.00788371,-0.01053674,-0.00175589,0.00044190,0.00035115,0.01292131,0.
 00462346,0.00285579,-0.21731979,-0.11490160,-0.05523229,-0.00532649,-0
 .00535481,-0.00085785,-0.00380937,-0.00061984,-0.00036703,-0.00037407,
 0.00130403,0.00017800,-0.00000105,-0.00043859,0.00010370,-0.00024110,0
 .00047720,0.00037172,0.00003138,0.00006043,0.00069894,0.00008109,0.000
 09466,-0.00000275,0.00063918,-0.00093561,-0.00019815,0.00005740,-0.000
 15053,0.00007251,0.21964649,-0.00058457,0.00066309,0.00007286,0.001104
 44,0.00193842,0.00186471,0.00137823,-0.00379470,-0.00403683,-0.0217173
 5,-0.02700553,-0.00268483,-0.10723808,-0.12196602,-0.04215614,0.004985
 05,0.00648142,0.00432801,0.00091094,-0.00046214,0.00042554,0.00017768,
 -0.00066785,0.00004315,-0.00009167,0.00059430,-0.00013828,-0.00013427,
 0.00010026,0.00026655,-0.00011651,-0.00008377,0.00006922,0.00002311,-0
 .00005397,0.00009038,-0.00172429,-0.00051154,0.00142314,-0.00031870,-0
 .00024034,0.00037424,0.12286013,0.14407492,-0.00139482,-0.00044699,0.0
 0198065,0.00682030,0.01019451,0.00892250,0.00124668,0.00084710,-0.0013
 9790,0.00104853,0.00130124,0.00421758,-0.05291046,-0.03993219,-0.07496
 153,-0.01677377,-0.01430534,-0.00326163,-0.00128789,0.00106304,-0.0018
 2288,0.00036403,0.00065184,0.00118843,-0.00023127,-0.00092518,0.000068
 68,-0.00002752,-0.00039536,-0.00018651,-0.00020716,0.00004868,-0.00020
 282,-0.00013829,0.00000368,-0.00002850,-0.00034041,0.00110921,0.000017
 61,0.00007030,0.00024323,-0.00012123,0.06456642,0.04001906,0.06539375,
 0.00079877,0.00007707,0.00023327,-0.00092842,0.00031773,-0.00075457,0.
 00096500,-0.00003716,0.00038494,0.00156144,-0.00188750,0.00344307,0.00
 175647,-0.01610740,-0.01407581,-0.04956109,0.01797170,0.02190814,-0.00
 225136,0.01960438,0.01648851,0.00308701,0.00151179,0.00081005,-0.00024
 996,0.00011053,-0.00012777,-0.00006949,-0.00007701,-0.00005150,0.00004
 328,0.00000178,0.00026270,0.00007158,-0.00008446,-0.00026142,-0.000056
 13,-0.00001499,0.00000645,-0.00010846,-0.00013632,0.00005633,-0.000917
 13,0.00127804,-0.00178935,0.04928234,-0.00018035,-0.00013167,0.0001471
 3,0.00007470,-0.00129552,0.00138542,-0.00045967,0.00010605,0.00054356,
 0.00009235,0.00148835,-0.00061262,-0.00063578,0.00367842,0.00802707,0.
 01642939,-0.16169303,-0.13378214,0.00011188,0.00293307,0.00417890,-0.0
 0079951,0.00082677,-0.00081152,0.00053353,0.00028085,0.00016502,0.0000
 1597,0.00001124,0.00001421,0.00004207,0.00000615,-0.00001651,-0.000054
 80,0.00005874,0.00002050,0.00009241,0.00001372,-0.00011317,0.00006362,
 0.00005681,-0.00007214,0.00020293,0.00004238,0.00007552,-0.01833032,0.
 17059816,0.00048287,0.00064943,-0.00034740,-0.00117199,0.00123036,-0.0
 0333289,0.00080810,-0.00018846,-0.00080445,0.00086003,-0.00029176,0.00
 519604,0.00294360,-0.01493910,-0.01832650,0.02230780,-0.13318327,-0.19
 549623,0.00045096,-0.00440164,-0.00637403,-0.00141645,-0.00213013,0.00
 061546,0.00039225,0.00087958,-0.00030818,-0.00005329,0.00003707,0.0000
 6481,-0.00009292,-0.00001865,-0.00004597,0.00018766,-0.00011942,-0.000
 17761,-0.00003550,0.00010280,-0.00000033,-0.00029183,0.00011882,0.0001
 8068,-0.00006171,0.00073891,-0.00185512,-0.02485649,0.14320329,0.21203
 705,0.00102476,-0.00014284,0.00030572,-0.00194811,-0.00046240,0.000609
 06,-0.00172388,-0.00007067,0.00090173,-0.00179654,0.00471978,-0.005627
 17,0.00591423,0.01874714,0.00140037,-0.05266436,-0.04162587,0.01074127
 ,-0.00688014,-0.02485851,0.00695087,-0.00018017,0.00083275,0.00504651,
 -0.00131289,-0.00231518,-0.00092504,-0.00000152,-0.00001629,-0.0000102
 3,-0.00004601,0.00016441,0.00029096,0.00002278,-0.00007197,-0.00026483
 ,0.00010717,0.00014592,-0.00010266,0.00037443,-0.00010249,-0.00023651,
 0.00072379,-0.00077065,0.00107037,0.00090748,0.00257105,-0.00121345,0.
 05486063,-0.00003205,-0.00024891,-0.00020836,-0.00020214,0.00031961,0.
 00049675,0.00090194,0.00021523,-0.00069649,0.00129954,-0.00085920,0.00
 273626,-0.00281788,-0.00506732,-0.00249778,-0.04122824,-0.28311719,0.0
 7958683,0.00186159,0.00143288,-0.00118144,0.00010346,0.00003759,0.0005
 6659,0.00013003,0.00033625,-0.00023257,-0.00002385,0.00010018,0.000039
 89,0.00000823,0.00000172,0.00000764,-0.00003065,0.00004704,0.00004940,
 -0.00003855,0.00001196,-0.00004224,-0.00018276,-0.00005629,0.00022196,
 0.00023713,0.00078780,0.00028332,-0.00331887,-0.01726096,0.00774082,0.
 04337092,0.30158209,0.00008047,0.00085121,-0.00033710,0.00183372,-0.00
 174504,-0.00299096,-0.00085563,-0.00040532,0.00051433,-0.00094790,0.00
 240014,-0.00290440,0.00585659,0.01847765,-0.00155086,0.01173215,0.0802
 3822,-0.07504199,0.00281702,0.01000834,-0.00485622,-0.00041781,-0.0001
 7515,-0.00193548,0.00063750,0.00063366,0.00032238,0.00006167,-0.000110
 59,-0.00002232,-0.00001702,-0.00005642,-0.00015887,0.00006627,-0.00009
 754,-0.00016965,0.00007399,0.00010829,-0.00006207,0.00025969,0.0000281
 4,-0.00026669,-0.00025500,-0.00060413,0.00150948,-0.00430083,-0.023002
 36,0.00957602,-0.01699041,-0.08661720,0.07658682,0.00121602,0.00077675
 ,0.00095068,-0.00430658,0.01222427,0.00030176,-0.00085379,-0.00183078,
 -0.00204780,0.00039781,-0.00072666,0.00063538,-0.00067256,-0.00114403,
 0.00141638,-0.01256288,0.02070070,0.00840974,-0.07655068,0.08805891,0.
 00885546,0.01076224,-0.02475259,-0.00258252,-0.00505396,0.00074110,0.0
 0045598,0.00001463,-0.00052126,-0.00048577,-0.00002069,-0.00019105,0.0
 0016113,0.00007264,-0.00022632,-0.00033302,0.00000493,0.00010112,0.000
 01287,-0.00021454,0.00065914,0.00002756,-0.00044255,0.00009325,-0.0003
 7922,-0.00397283,-0.00017553,0.00010870,0.00267109,-0.00003445,0.00024
 720,0.09072742,-0.00071984,0.00084172,-0.00144563,0.00349416,-0.010425
 39,-0.00111094,0.00022024,0.00115708,0.00195352,0.00027192,0.00041208,
 -0.00057433,-0.00033685,-0.00044540,0.00029635,-0.00360724,0.00474792,
 0.00210142,0.09525794,-0.25287856,-0.04089859,0.00830021,-0.02348199,-
 0.00164438,-0.00359348,0.00114910,-0.00143884,-0.00003691,0.00062617,0
 .00059049,-0.00005130,0.00026534,-0.00017891,-0.00004440,-0.00006144,0
 .00027036,-0.00015189,0.00019276,-0.00009868,0.00036008,-0.00047361,-0
 .00003487,0.00006293,0.00009195,-0.00011369,-0.00090288,0.00043473,0.0
 0045692,0.00008197,0.00172759,0.00010454,-0.09674666,0.27451210,0.0007
 0273,0.00121222,0.00191899,-0.01017886,0.02676222,0.00262251,-0.002589
 56,-0.00037767,-0.00509986,-0.00027317,-0.00041458,0.00090848,0.001195
 90,0.00000486,-0.00118629,0.01054419,-0.01799245,-0.00609221,0.0112614
 4,-0.04267475,-0.04851995,0.00720594,-0.01110530,0.00023575,-0.0018998
 7,-0.00026313,-0.00012195,-0.00019128,-0.00074473,-0.00023391,0.000120
 60,-0.00014819,0.00038189,0.00024340,0.00008121,-0.00024110,0.00020449
 ,-0.00007060,0.00002468,-0.00074264,0.00138340,0.00031878,-0.00020767,
 -0.00004485,0.00033040,0.00333254,0.00057348,-0.00086275,-0.00142711,-
 0.00011420,0.00162481,-0.01641086,0.04204800,0.05384305,-0.00116627,0.
 00044974,-0.00050434,-0.00043385,-0.00390772,-0.00122285,0.00034323,-0
 .00087715,-0.00028155,0.00012511,0.00018583,0.00027439,0.00088598,0.00
 045522,-0.00062351,0.00234791,0.00097373,0.00117167,0.00069751,-0.0008
 2460,-0.02469324,-0.08562037,0.01220045,-0.06373884,0.01927158,-0.0114
 0941,0.01747861,0.00002644,0.00004557,0.00008430,0.00010350,-0.0000915
 0,-0.00047573,0.00004324,0.00000182,0.00004387,-0.00002150,0.00052656,
 0.00022162,0.00000494,0.00016693,0.00008921,0.00008826,-0.00011480,0.0
 0029356,-0.00035852,0.00040605,0.00065166,-0.00005273,-0.00000343,0.00
 011832,-0.00121572,-0.00185797,-0.00089022,0.06493125,-0.00046641,0.00
 016450,0.00004261,-0.00225960,-0.00268501,0.00087310,-0.00004493,-0.00
 014447,0.00021816,0.00002909,0.00030660,0.00011976,-0.00048080,0.00010
 503,-0.00118290,-0.00048467,-0.00045851,0.00068862,-0.01188781,0.01424
 274,-0.01325450,0.01322363,-0.06477703,0.02760739,-0.00375470,-0.01113
 902,0.04422854,0.00001805,-0.00005170,-0.00007715,0.00007166,-0.000099
 50,-0.00022551,0.00008577,-0.00007108,-0.00017652,-0.00027151,0.000202
 21,0.00005521,-0.00004510,0.00007434,-0.00003006,-0.00022829,0.0000113
 5,0.00027832,0.00002388,-0.00015427,0.00011443,-0.00019708,0.00000993,
 -0.00003644,0.00299410,0.00160785,0.00188506,0.00367471,0.06285604,-0.
 00054774,0.00022225,-0.00004212,0.00014043,-0.00265592,0.00221246,0.00
 068453,0.00048334,0.00023761,-0.00037785,0.00000385,0.00013893,-0.0008
 7644,0.00033783,-0.00062171,-0.00080741,-0.00096811,-0.00003525,-0.006
 79476,0.00851226,-0.01020279,-0.06841171,0.02477964,-0.22248929,0.0061
 8403,0.03106832,-0.02032635,-0.00000938,-0.00006590,-0.00001256,-0.000
 00621,-0.00006633,-0.00025246,0.00000933,0.00002859,0.00003886,-0.0000
 9525,-0.00018117,-0.00012627,-0.00010943,0.00002576,-0.00010531,-0.000
 41383,-0.00005071,0.00020905,-0.00070828,0.00007636,0.00026141,-0.0005
 1946,-0.00013919,0.00016278,0.00065636,-0.00028273,0.00014869,0.072003
 06,-0.06112813,0.25080432\\0.00000858,-0.00002032,-0.00003781,-0.00005
 178,0.00003453,0.00003289,0.00001529,-0.00000929,0.00000568,0.00002719
 ,-0.00005368,-0.00000629,0.00000579,0.00006186,-0.00001271,-0.00000168
 ,-0.00002507,0.00003069,-0.00000733,-0.00001172,-0.00001597,0.00001544
 ,0.00004435,-0.00002269,-0.00001627,-0.00004132,0.00001053,-0.00001707
 ,0.00000161,0.00000879,-0.00000662,0.00000607,0.00000514,-0.00000860,-
 0.00000491,0.00000867,0.00000991,0.00001506,-0.00000351,0.00000452,0.0
 0001143,-0.00000122,0.00000150,-0.00001138,0.00000376,0.00001016,0.000
 01318,-0.00000177,-0.00000263,0.00001025,-0.00000295,0.00001030,-0.000
 00250,-0.00000555,0.00000330,-0.00001813,0.00000431\\\@


 CONTRAIWISE...CONTINUED TWEEDLEDEE, IF IT WAS SO, IT MIGHT BE,
 AND IF IT WERE SO, IT WOULD BE.....
 BUT AS IT ISN'T, IT AIN'T....
 THAT'S LOGIC.....
 ALICE THROUGH THE LOOKING GLASS
 Job cpu time:       0 days  0 hours 43 minutes 11.5 seconds.
 File lengths (MBytes):  RWF=    152 Int=      0 D2E=      0 Chk=      8 Scr=      1
 Normal termination of Gaussian 09 at Mon Jan 27 19:34:15 2020.
