 Entering Gaussian System, Link 0=/home/puck/opt/gaussian_09/g09
 Input=dsC7O2H10nsd_3448.com
 Output=dsC7O2H10nsd_3448.log
 Initial command:
 /home/puck/opt/gaussian_09/l1.exe "/scratch/puck/g09_67579d17-31d8-4503-a692-8ffda1de4b89/Gau-116256.inp" -scrdir="/scratch/puck/g09_67579d17-31d8-4503-a692-8ffda1de4b89/"
 Entering Link 1 = /home/puck/opt/gaussian_09/l1.exe PID=    116677.
  
 Copyright (c) 1988,1990,1992,1993,1995,1998,2003,2009,2013,
            Gaussian, Inc.  All Rights Reserved.
  
 This is part of the Gaussian(R) 09 program.  It is based on
 the Gaussian(R) 03 system (copyright 2003, Gaussian, Inc.),
 the Gaussian(R) 98 system (copyright 1998, Gaussian, Inc.),
 the Gaussian(R) 94 system (copyright 1995, Gaussian, Inc.),
 the Gaussian 92(TM) system (copyright 1992, Gaussian, Inc.),
 the Gaussian 90(TM) system (copyright 1990, Gaussian, Inc.),
 the Gaussian 88(TM) system (copyright 1988, Gaussian, Inc.),
 the Gaussian 86(TM) system (copyright 1986, Carnegie Mellon
 University), and the Gaussian 82(TM) system (copyright 1983,
 Carnegie Mellon University). Gaussian is a federally registered
 trademark of Gaussian, Inc.
  
 This software contains proprietary and confidential information,
 including trade secrets, belonging to Gaussian, Inc.
  
 This software is provided under written license and may be
 used, copied, transmitted, or stored only in accord with that
 written license.
  
 The following legend is applicable only to US Government
 contracts under FAR:
  
                    RESTRICTED RIGHTS LEGEND
  
 Use, reproduction and disclosure by the US Government is
 subject to restrictions as set forth in subparagraphs (a)
 and (c) of the Commercial Computer Software - Restricted
 Rights clause in FAR 52.227-19.
  
 Gaussian, Inc.
 340 Quinnipiac St., Bldg. 40, Wallingford CT 06492
  
  
 ---------------------------------------------------------------
 Warning -- This program may not be used in any manner that
 competes with the business of Gaussian, Inc. or will provide
 assistance to any competitor of Gaussian, Inc.  The licensee
 of this program is prohibited from giving any competitor of
 Gaussian, Inc. access to this program.  By using this program,
 the user acknowledges that Gaussian, Inc. is engaged in the
 business of creating and licensing software in the field of
 computational chemistry and represents and warrants to the
 licensee that it is not a competitor of Gaussian, Inc. and that
 it will not use this program in any manner prohibited above.
 ---------------------------------------------------------------
  

 Cite this work as:
 Gaussian 09, Revision D.01,
 M. J. Frisch, G. W. Trucks, H. B. Schlegel, G. E. Scuseria, 
 M. A. Robb, J. R. Cheeseman, G. Scalmani, V. Barone, B. Mennucci, 
 G. A. Petersson, H. Nakatsuji, M. Caricato, X. Li, H. P. Hratchian, 
 A. F. Izmaylov, J. Bloino, G. Zheng, J. L. Sonnenberg, M. Hada, 
 M. Ehara, K. Toyota, R. Fukuda, J. Hasegawa, M. Ishida, T. Nakajima, 
 Y. Honda, O. Kitao, H. Nakai, T. Vreven, J. A. Montgomery, Jr., 
 J. E. Peralta, F. Ogliaro, M. Bearpark, J. J. Heyd, E. Brothers, 
 K. N. Kudin, V. N. Staroverov, T. Keith, R. Kobayashi, J. Normand, 
 K. Raghavachari, A. Rendell, J. C. Burant, S. S. Iyengar, J. Tomasi, 
 M. Cossi, N. Rega, J. M. Millam, M. Klene, J. E. Knox, J. B. Cross, 
 V. Bakken, C. Adamo, J. Jaramillo, R. Gomperts, R. E. Stratmann, 
 O. Yazyev, A. J. Austin, R. Cammi, C. Pomelli, J. W. Ochterski, 
 R. L. Martin, K. Morokuma, V. G. Zakrzewski, G. A. Voth, 
 P. Salvador, J. J. Dannenberg, S. Dapprich, A. D. Daniels, 
 O. Farkas, J. B. Foresman, J. V. Ortiz, J. Cioslowski, 
 and D. J. Fox, Gaussian, Inc., Wallingford CT, 2013.
 
 ******************************************
 Gaussian 09:  ES64L-G09RevD.01 24-Apr-2013
                27-Jan-2020 
 ******************************************
 -----------------------------
 # b3lyp 6-31G(2df,p) opt Freq
 -----------------------------
 1/14=-1,18=20,19=15,26=3,38=1/1,3;
 2/9=110,12=2,17=6,18=5,40=1/2;
 3/5=1,6=6,7=104,11=2,16=1,25=1,30=1,71=1,74=-5/1,2,3;
 4//1;
 5/5=2,38=5/2;
 6/7=2,8=2,9=2,10=2,28=1/1;
 7//1,2,3,16;
 1/14=-1,18=20,19=15,26=3/3(2);
 2/9=110/2;
 99//99;
 2/9=110/2;
 3/5=1,6=6,7=104,11=2,16=1,25=1,30=1,71=1,74=-5/1,2,3;
 4/5=5,16=3,69=1/1;
 5/5=2,38=5/2;
 7//1,2,3,16;
 1/14=-1,18=20,19=15,26=3/3(-5);
 2/9=110/2;
 6/7=2,8=2,9=2,10=2,19=2,28=1/1;
 99/9=1/99;
 -----
 titel
 -----
 Symbolic Z-matrix:
 Charge =  0 Multiplicity = 1
 C                    -0.63963   1.9229   -1.37465 
 C                    -0.9491    1.24074  -0.02685 
 C                    -0.76347   2.23066   1.1284 
 C                    -2.34307   0.5543   -0.03599 
 O                    -3.18452   1.09965  -1.0434 
 C                    -2.03616  -0.91598  -0.24052 
 C                    -0.73479  -1.19647  -0.13087 
 C                     0.02812   0.05024   0.11633 
 O                     1.20635   0.14504   0.37167 
 H                    -0.76506   1.23449  -2.21442 
 H                    -1.30944   2.77028  -1.5358 
 H                     0.39484   2.27709  -1.367 
 H                    -0.99864   1.77022   2.09401 
 H                     0.27586   2.56747   1.16541 
 H                    -1.41132   3.10361   0.9995 
 H                    -2.81709   0.6844    0.95051 
 H                    -4.07145   0.7478   -0.91847 
 H                    -2.82702  -1.6367   -0.42698 
 H                    -0.26091  -2.16813  -0.19364 
 

 GradGradGradGradGradGradGradGradGradGradGradGradGradGradGradGradGradGrad
 Berny optimization.
 Initialization pass.
                           ----------------------------
                           !    Initial Parameters    !
                           ! (Angstroms and Degrees)  !
 --------------------------                            --------------------------
 ! Name  Definition              Value          Derivative Info.                !
 --------------------------------------------------------------------------------
 ! R1    R(1,2)                  1.542          estimate D2E/DX2                !
 ! R2    R(1,10)                 1.0931         estimate D2E/DX2                !
 ! R3    R(1,11)                 1.0921         estimate D2E/DX2                !
 ! R4    R(1,12)                 1.0935         estimate D2E/DX2                !
 ! R5    R(2,3)                  1.5326         estimate D2E/DX2                !
 ! R6    R(2,4)                  1.5538         estimate D2E/DX2                !
 ! R7    R(2,8)                  1.5469         estimate D2E/DX2                !
 ! R8    R(3,13)                 1.0953         estimate D2E/DX2                !
 ! R9    R(3,14)                 1.0932         estimate D2E/DX2                !
 ! R10   R(3,15)                 1.0947         estimate D2E/DX2                !
 ! R11   R(4,5)                  1.4214         estimate D2E/DX2                !
 ! R12   R(4,6)                  1.5158         estimate D2E/DX2                !
 ! R13   R(4,16)                 1.1022         estimate D2E/DX2                !
 ! R14   R(5,17)                 0.9623         estimate D2E/DX2                !
 ! R15   R(6,7)                  1.3358         estimate D2E/DX2                !
 ! R16   R(6,18)                 1.0861         estimate D2E/DX2                !
 ! R17   R(7,8)                  1.4824         estimate D2E/DX2                !
 ! R18   R(7,19)                 1.0829         estimate D2E/DX2                !
 ! R19   R(8,9)                  1.2093         estimate D2E/DX2                !
 ! A1    A(2,1,10)             111.7074         estimate D2E/DX2                !
 ! A2    A(2,1,11)             110.4354         estimate D2E/DX2                !
 ! A3    A(2,1,12)             109.0904         estimate D2E/DX2                !
 ! A4    A(10,1,11)            107.7532         estimate D2E/DX2                !
 ! A5    A(10,1,12)            108.5379         estimate D2E/DX2                !
 ! A6    A(11,1,12)            109.265          estimate D2E/DX2                !
 ! A7    A(1,2,3)              110.4138         estimate D2E/DX2                !
 ! A8    A(1,2,4)              111.7368         estimate D2E/DX2                !
 ! A9    A(1,2,8)              107.1334         estimate D2E/DX2                !
 ! A10   A(3,2,4)              113.4795         estimate D2E/DX2                !
 ! A11   A(3,2,8)              110.5373         estimate D2E/DX2                !
 ! A12   A(4,2,8)              103.1374         estimate D2E/DX2                !
 ! A13   A(2,3,13)             111.5296         estimate D2E/DX2                !
 ! A14   A(2,3,14)             109.8565         estimate D2E/DX2                !
 ! A15   A(2,3,15)             110.7706         estimate D2E/DX2                !
 ! A16   A(13,3,14)            107.6858         estimate D2E/DX2                !
 ! A17   A(13,3,15)            108.1778         estimate D2E/DX2                !
 ! A18   A(14,3,15)            108.721          estimate D2E/DX2                !
 ! A19   A(2,4,5)              111.4541         estimate D2E/DX2                !
 ! A20   A(2,4,6)              104.3388         estimate D2E/DX2                !
 ! A21   A(2,4,16)             109.1727         estimate D2E/DX2                !
 ! A22   A(5,4,6)              113.3518         estimate D2E/DX2                !
 ! A23   A(5,4,16)             109.54           estimate D2E/DX2                !
 ! A24   A(6,4,16)             108.8046         estimate D2E/DX2                !
 ! A25   A(4,5,17)             108.2603         estimate D2E/DX2                !
 ! A26   A(4,6,7)              112.945          estimate D2E/DX2                !
 ! A27   A(4,6,18)             121.2898         estimate D2E/DX2                !
 ! A28   A(7,6,18)             125.7436         estimate D2E/DX2                !
 ! A29   A(6,7,8)              109.7853         estimate D2E/DX2                !
 ! A30   A(6,7,19)             127.5893         estimate D2E/DX2                !
 ! A31   A(8,7,19)             122.622          estimate D2E/DX2                !
 ! A32   A(2,8,7)              107.8611         estimate D2E/DX2                !
 ! A33   A(2,8,9)              125.08           estimate D2E/DX2                !
 ! A34   A(7,8,9)              127.0546         estimate D2E/DX2                !
 ! D1    D(10,1,2,3)           179.9692         estimate D2E/DX2                !
 ! D2    D(10,1,2,4)           -52.7269         estimate D2E/DX2                !
 ! D3    D(10,1,2,8)            59.5421         estimate D2E/DX2                !
 ! D4    D(11,1,2,3)           -60.1258         estimate D2E/DX2                !
 ! D5    D(11,1,2,4)            67.1781         estimate D2E/DX2                !
 ! D6    D(11,1,2,8)           179.4471         estimate D2E/DX2                !
 ! D7    D(12,1,2,3)            59.9762         estimate D2E/DX2                !
 ! D8    D(12,1,2,4)          -172.7198         estimate D2E/DX2                !
 ! D9    D(12,1,2,8)           -60.4508         estimate D2E/DX2                !
 ! D10   D(1,2,3,13)           178.8388         estimate D2E/DX2                !
 ! D11   D(1,2,3,14)           -61.8405         estimate D2E/DX2                !
 ! D12   D(1,2,3,15)            58.2879         estimate D2E/DX2                !
 ! D13   D(4,2,3,13)            52.5042         estimate D2E/DX2                !
 ! D14   D(4,2,3,14)           171.825          estimate D2E/DX2                !
 ! D15   D(4,2,3,15)           -68.0467         estimate D2E/DX2                !
 ! D16   D(8,2,3,13)           -62.7956         estimate D2E/DX2                !
 ! D17   D(8,2,3,14)            56.5252         estimate D2E/DX2                !
 ! D18   D(8,2,3,15)           176.6535         estimate D2E/DX2                !
 ! D19   D(1,2,4,5)            -21.2257         estimate D2E/DX2                !
 ! D20   D(1,2,4,6)            101.4601         estimate D2E/DX2                !
 ! D21   D(1,2,4,16)          -142.3644         estimate D2E/DX2                !
 ! D22   D(3,2,4,5)            104.4066         estimate D2E/DX2                !
 ! D23   D(3,2,4,6)           -132.9076         estimate D2E/DX2                !
 ! D24   D(3,2,4,16)           -16.732          estimate D2E/DX2                !
 ! D25   D(8,2,4,5)           -135.9798         estimate D2E/DX2                !
 ! D26   D(8,2,4,6)            -13.294          estimate D2E/DX2                !
 ! D27   D(8,2,4,16)           102.8816         estimate D2E/DX2                !
 ! D28   D(1,2,8,7)           -105.2495         estimate D2E/DX2                !
 ! D29   D(1,2,8,9)             74.0445         estimate D2E/DX2                !
 ! D30   D(3,2,8,7)            134.4021         estimate D2E/DX2                !
 ! D31   D(3,2,8,9)            -46.304          estimate D2E/DX2                !
 ! D32   D(4,2,8,7)             12.7788         estimate D2E/DX2                !
 ! D33   D(4,2,8,9)           -167.9272         estimate D2E/DX2                !
 ! D34   D(2,4,5,17)          -171.0116         estimate D2E/DX2                !
 ! D35   D(6,4,5,17)            71.6336         estimate D2E/DX2                !
 ! D36   D(16,4,5,17)          -50.0874         estimate D2E/DX2                !
 ! D37   D(2,4,6,7)             10.1322         estimate D2E/DX2                !
 ! D38   D(2,4,6,18)          -171.4651         estimate D2E/DX2                !
 ! D39   D(5,4,6,7)            131.569          estimate D2E/DX2                !
 ! D40   D(5,4,6,18)           -50.0283         estimate D2E/DX2                !
 ! D41   D(16,4,6,7)          -106.2996         estimate D2E/DX2                !
 ! D42   D(16,4,6,18)           72.1031         estimate D2E/DX2                !
 ! D43   D(4,6,7,8)             -1.9575         estimate D2E/DX2                !
 ! D44   D(4,6,7,19)           177.3828         estimate D2E/DX2                !
 ! D45   D(18,6,7,8)           179.7243         estimate D2E/DX2                !
 ! D46   D(18,6,7,19)           -0.9354         estimate D2E/DX2                !
 ! D47   D(6,7,8,2)             -7.2248         estimate D2E/DX2                !
 ! D48   D(6,7,8,9)            173.4992         estimate D2E/DX2                !
 ! D49   D(19,7,8,2)           173.3958         estimate D2E/DX2                !
 ! D50   D(19,7,8,9)            -5.8802         estimate D2E/DX2                !
 --------------------------------------------------------------------------------
 Trust Radius=3.00D-01 FncErr=1.00D-07 GrdErr=1.00D-06
 Number of steps in this run=    113 maximum allowed number of steps=    114.
 GradGradGradGradGradGradGradGradGradGradGradGradGradGradGradGradGradGrad

                          Input orientation:                          
 ---------------------------------------------------------------------
 Center     Atomic      Atomic             Coordinates (Angstroms)
 Number     Number       Type             X           Y           Z
 ---------------------------------------------------------------------
      1          6           0       -0.639631    1.922902   -1.374649
      2          6           0       -0.949098    1.240742   -0.026850
      3          6           0       -0.763474    2.230665    1.128398
      4          6           0       -2.343066    0.554296   -0.035986
      5          8           0       -3.184524    1.099650   -1.043396
      6          6           0       -2.036159   -0.915984   -0.240519
      7          6           0       -0.734787   -1.196465   -0.130872
      8          6           0        0.028119    0.050236    0.116328
      9          8           0        1.206351    0.145041    0.371668
     10          1           0       -0.765065    1.234488   -2.214422
     11          1           0       -1.309441    2.770281   -1.535799
     12          1           0        0.394840    2.277094   -1.367003
     13          1           0       -0.998640    1.770221    2.094007
     14          1           0        0.275856    2.567466    1.165409
     15          1           0       -1.411319    3.103610    0.999500
     16          1           0       -2.817092    0.684401    0.950512
     17          1           0       -4.071451    0.747803   -0.918475
     18          1           0       -2.827017   -1.636702   -0.426977
     19          1           0       -0.260909   -2.168130   -0.193637
 ---------------------------------------------------------------------
                    Distance matrix (angstroms):
                    1          2          3          4          5
     1  C    0.000000
     2  C    1.541971   0.000000
     3  C    2.524936   1.532645   0.000000
     4  C    2.562575   1.553847   2.580913   0.000000
     5  O    2.695172   2.459757   3.443453   1.421386   0.000000
     6  C    3.360924   2.424629   3.659926   1.515833   2.454818
     7  C    3.359537   2.448823   3.651275   2.379229   3.479376
     8  C    2.485111   1.546854   2.530845   2.428950   3.573137
     9  O    3.101299   2.450579   2.966931   3.596113   4.710994
    10  H    1.093099   2.195309   3.488097   2.774587   2.691331
    11  H    1.092093   2.178592   2.772582   2.868520   2.559180
    12  H    1.093453   2.162454   2.751523   3.497967   3.781923
    13  H    3.490526   2.186512   1.095313   2.796932   3.882145
    14  H    2.775874   2.163837   1.093167   3.514962   4.359763
    15  H    2.761550   2.176538   1.094692   2.905062   3.366532
    16  H    3.417835   2.180402   2.576805   1.102182   2.069566
    17  H    3.656001   3.284368   4.163085   1.950268   0.962310
    18  H    4.284100   3.459244   4.651229   2.277621   2.827615
    19  H    4.274898   3.481642   4.620579   3.431011   4.466319
                    6          7          8          9         10
     6  C    0.000000
     7  C    1.335763   0.000000
     8  C    2.306983   1.482363   0.000000
     9  O    3.466182   2.412509   1.209304   0.000000
    10  H    3.183787   3.201817   2.732030   3.429465   0.000000
    11  H    3.974219   4.247249   3.452135   4.106035   1.765087
    12  H    4.168270   3.856125   2.700677   2.868306   1.774972
    13  H    3.707042   3.717652   2.814924   3.235683   4.347888
    14  H    4.410949   4.107180   2.738319   2.713667   3.779366
    15  H    4.252671   4.497342   3.489279   3.999938   3.773666
    16  H    2.142345   3.007166   3.032038   4.100495   3.811852
    17  H    2.714815   3.941297   4.285311   5.466532   3.584484
    18  H    1.086120   2.158452   3.360468   4.481127   3.961103
    19  H    2.172921   1.082881   2.258487   2.796994   3.989430
                   11         12         13         14         15
    11  H    0.000000
    12  H    1.782217   0.000000
    13  H    3.777858   3.765276   0.000000
    14  H    3.138603   2.551781   1.766984   0.000000
    15  H    2.559147   3.089608   1.773747   1.778071   0.000000
    16  H    3.578498   4.268964   2.406939   3.627457   2.798423
    17  H    3.478534   4.742116   4.422958   5.152943   4.037915
    18  H    4.791035   5.155755   4.615783   5.462467   5.148747
    19  H    5.223860   4.644008   4.613911   4.955905   5.526144
                   16         17         18         19
    16  H    0.000000
    17  H    2.251787   0.000000
    18  H    2.699091   2.734236   0.000000
    19  H    3.997510   4.852658   2.630927   0.000000
 Stoichiometry    C7H10O2
 Framework group  C1[X(C7H10O2)]
 Deg. of freedom    51
 Full point group                 C1      NOp   1
 Largest Abelian subgroup         C1      NOp   1
 Largest concise Abelian subgroup C1      NOp   1
                         Standard orientation:                         
 ---------------------------------------------------------------------
 Center     Atomic      Atomic             Coordinates (Angstroms)
 Number     Number       Type             X           Y           Z
 ---------------------------------------------------------------------
      1          6           0       -0.031776   -1.252407    1.318660
      2          6           0        0.121348   -0.598044   -0.069157
      3          6           0        0.546857   -1.641369   -1.108106
      4          6           0       -1.151262    0.196044   -0.474531
      5          8           0       -2.291617   -0.243816    0.251038
      6          6           0       -0.791087    1.644077   -0.207656
      7          6           0        0.505568    1.816851    0.062713
      8          6           0        1.197008    0.505627    0.063597
      9          8           0        2.386021    0.308884    0.163376
     10          1           0       -0.334717   -0.525805    2.077041
     11          1           0       -0.789972   -2.037829    1.288333
     12          1           0        0.926254   -1.687102    1.616751
     13          1           0        0.641298   -1.199672   -2.105952
     14          1           0        1.519504   -2.060203   -0.836907
     15          1           0       -0.183278   -2.455179   -1.162579
     16          1           0       -1.329400    0.067497   -1.554599
     17          1           0       -3.070869    0.172029   -0.130905
     18          1           0       -1.536935    2.431280   -0.268306
     19          1           0        1.022957    2.749776    0.248697
 ---------------------------------------------------------------------
 Rotational constants (GHZ):      2.2563125      1.6846018      1.2398150
 Standard basis: 6-31G(2df,p) (6D, 7F)
 There are   329 symmetry adapted cartesian basis functions of A   symmetry.
 There are   302 symmetry adapted basis functions of A   symmetry.
   302 basis functions,   466 primitive gaussians,   329 cartesian basis functions
    34 alpha electrons       34 beta electrons
       nuclear repulsion energy       464.1921198531 Hartrees.
 NAtoms=   19 NActive=   19 NUniq=   19 SFac= 1.00D+00 NAtFMM=   60 NAOKFM=F Big=F
 Integral buffers will be    131072 words long.
 Raffenetti 2 integral format.
 Two-electron integral symmetry is turned on.
 One-electron integrals computed using PRISM.
 NBasis=   302 RedAO= T EigKep=  3.59D-04  NBF=   302
 NBsUse=   302 1.00D-06 EigRej= -1.00D+00 NBFU=   302
 ExpMin= 1.61D-01 ExpMax= 5.48D+03 ExpMxC= 8.25D+02 IAcc=1 IRadAn=         1 AccDes= 0.00D+00
 Harris functional with IExCor=  402 and IRadAn=       1 diagonalized for initial guess.
 HarFok:  IExCor=  402 AccDes= 0.00D+00 IRadAn=         1 IDoV= 1 UseB2=F ITyADJ=14
 ICtDFT=  3500011 ScaDFX=  1.000000  1.000000  1.000000  1.000000
 FoFCou: FMM=F IPFlag=           0 FMFlag=      100000 FMFlg1=           0
         NFxFlg=           0 DoJE=T BraDBF=F KetDBF=T FulRan=T
         wScrn=  0.000000 ICntrl=     500 IOpCl=  0 I1Cent=   200000004 NGrid=           0
         NMat0=    1 NMatS0=      1 NMatT0=    0 NMatD0=    1 NMtDS0=    0 NMtDT0=    0
 Petite list used in FoFCou.
 Requested convergence on RMS density matrix=1.00D-08 within 128 cycles.
 Requested convergence on MAX density matrix=1.00D-06.
 Requested convergence on             energy=1.00D-06.
 No special actions if energy rises.
 Integral accuracy reduced to 1.0D-05 until final iterations.
 Initial convergence to 1.0D-05 achieved.  Increase integral accuracy.
 SCF Done:  E(RB3LYP) =  -423.219561288     A.U. after   14 cycles
            NFock= 14  Conv=0.69D-08     -V/T= 2.0074

 **********************************************************************

            Population analysis using the SCF density.

 **********************************************************************

 Orbital symmetries:
       Occupied  (A) (A) (A) (A) (A) (A) (A) (A) (A) (A) (A) (A)
                 (A) (A) (A) (A) (A) (A) (A) (A) (A) (A) (A) (A)
                 (A) (A) (A) (A) (A) (A) (A) (A) (A) (A)
       Virtual   (A) (A) (A) (A) (A) (A) (A) (A) (A) (A) (A) (A)
                 (A) (A) (A) (A) (A) (A) (A) (A) (A) (A) (A) (A)
                 (A) (A) (A) (A) (A) (A) (A) (A) (A) (A) (A) (A)
                 (A) (A) (A) (A) (A) (A) (A) (A) (A) (A) (A) (A)
                 (A) (A) (A) (A) (A) (A) (A) (A) (A) (A) (A) (A)
                 (A) (A) (A) (A) (A) (A) (A) (A) (A) (A) (A) (A)
                 (A) (A) (A) (A) (A) (A) (A) (A) (A) (A) (A) (A)
                 (A) (A) (A) (A) (A) (A) (A) (A) (A) (A) (A) (A)
                 (A) (A) (A) (A) (A) (A) (A) (A) (A) (A) (A) (A)
                 (A) (A) (A) (A) (A) (A) (A) (A) (A) (A) (A) (A)
                 (A) (A) (A) (A) (A) (A) (A) (A) (A) (A) (A) (A)
                 (A) (A) (A) (A) (A) (A) (A) (A) (A) (A) (A) (A)
                 (A) (A) (A) (A) (A) (A) (A) (A) (A) (A) (A) (A)
                 (A) (A) (A) (A) (A) (A) (A) (A) (A) (A) (A) (A)
                 (A) (A) (A) (A) (A) (A) (A) (A) (A) (A) (A) (A)
                 (A) (A) (A) (A) (A) (A) (A) (A) (A) (A) (A) (A)
                 (A) (A) (A) (A) (A) (A) (A) (A) (A) (A) (A) (A)
                 (A) (A) (A) (A) (A) (A) (A) (A) (A) (A) (A) (A)
                 (A) (A) (A) (A) (A) (A) (A) (A) (A) (A) (A) (A)
                 (A) (A) (A) (A) (A) (A) (A) (A) (A) (A) (A) (A)
                 (A) (A) (A) (A) (A) (A) (A) (A) (A) (A) (A) (A)
                 (A) (A) (A) (A) (A) (A) (A) (A) (A) (A) (A) (A)
                 (A) (A) (A) (A)
 The electronic state is 1-A.
 Alpha  occ. eigenvalues --  -19.15014 -19.12274 -10.25878 -10.24785 -10.21307
 Alpha  occ. eigenvalues --  -10.19889 -10.19768 -10.17481 -10.17261  -1.03459
 Alpha  occ. eigenvalues --   -1.03051  -0.85246  -0.77813  -0.68837  -0.68066
 Alpha  occ. eigenvalues --   -0.63918  -0.57065  -0.52584  -0.50769  -0.48897
 Alpha  occ. eigenvalues --   -0.44738  -0.43959  -0.42947  -0.41370  -0.40189
 Alpha  occ. eigenvalues --   -0.38081  -0.37055  -0.36573  -0.35953  -0.33758
 Alpha  occ. eigenvalues --   -0.32882  -0.28154  -0.28001  -0.23735
 Alpha virt. eigenvalues --   -0.04868   0.04804   0.07328   0.10618   0.11417
 Alpha virt. eigenvalues --    0.13776   0.14520   0.15509   0.16320   0.17315
 Alpha virt. eigenvalues --    0.18881   0.19392   0.20702   0.20722   0.23364
 Alpha virt. eigenvalues --    0.23567   0.26389   0.28900   0.29538   0.37550
 Alpha virt. eigenvalues --    0.39829   0.41550   0.45014   0.45231   0.46932
 Alpha virt. eigenvalues --    0.47899   0.49806   0.51120   0.53636   0.54183
 Alpha virt. eigenvalues --    0.56064   0.58336   0.58421   0.59895   0.61745
 Alpha virt. eigenvalues --    0.62824   0.64391   0.66166   0.67257   0.69641
 Alpha virt. eigenvalues --    0.70755   0.72140   0.73895   0.73999   0.74905
 Alpha virt. eigenvalues --    0.75593   0.76588   0.78353   0.79807   0.80578
 Alpha virt. eigenvalues --    0.81852   0.83026   0.83904   0.87263   0.88486
 Alpha virt. eigenvalues --    0.89767   0.90936   0.92842   0.93595   0.95635
 Alpha virt. eigenvalues --    0.97946   0.98910   1.00334   1.02543   1.04811
 Alpha virt. eigenvalues --    1.05945   1.08630   1.14091   1.16265   1.18152
 Alpha virt. eigenvalues --    1.20922   1.23844   1.25256   1.28935   1.30892
 Alpha virt. eigenvalues --    1.32418   1.34684   1.36878   1.38717   1.40248
 Alpha virt. eigenvalues --    1.42770   1.44142   1.45014   1.46495   1.47749
 Alpha virt. eigenvalues --    1.52394   1.52911   1.55958   1.57449   1.59031
 Alpha virt. eigenvalues --    1.62033   1.63740   1.66143   1.67655   1.68745
 Alpha virt. eigenvalues --    1.71924   1.74313   1.78054   1.78470   1.80492
 Alpha virt. eigenvalues --    1.83193   1.87918   1.88700   1.90368   1.91500
 Alpha virt. eigenvalues --    1.93165   1.94892   1.97282   2.02171   2.04911
 Alpha virt. eigenvalues --    2.10681   2.15063   2.16962   2.23227   2.24196
 Alpha virt. eigenvalues --    2.30371   2.33381   2.34010   2.38174   2.41494
 Alpha virt. eigenvalues --    2.42507   2.47991   2.51075   2.53034   2.53890
 Alpha virt. eigenvalues --    2.56484   2.61036   2.66032   2.68227   2.74770
 Alpha virt. eigenvalues --    2.76736   2.77897   2.80301   2.82610   2.84213
 Alpha virt. eigenvalues --    2.86167   2.87746   2.90701   2.93263   2.93501
 Alpha virt. eigenvalues --    2.95000   2.95751   2.97141   2.99591   3.01431
 Alpha virt. eigenvalues --    3.01864   3.03208   3.06150   3.07739   3.10869
 Alpha virt. eigenvalues --    3.12996   3.13566   3.18624   3.21522   3.21679
 Alpha virt. eigenvalues --    3.25650   3.27412   3.29711   3.30753   3.32729
 Alpha virt. eigenvalues --    3.34244   3.40047   3.44913   3.47599   3.49221
 Alpha virt. eigenvalues --    3.50567   3.54417   3.56405   3.59888   3.65810
 Alpha virt. eigenvalues --    3.66347   3.69152   3.69474   3.75879   3.79664
 Alpha virt. eigenvalues --    3.80577   3.81798   3.85328   3.90306   3.93786
 Alpha virt. eigenvalues --    3.99832   4.01553   4.02374   4.07473   4.09620
 Alpha virt. eigenvalues --    4.11184   4.13083   4.16897   4.18467   4.21489
 Alpha virt. eigenvalues --    4.23245   4.26584   4.29137   4.31703   4.32047
 Alpha virt. eigenvalues --    4.36212   4.37318   4.39353   4.43835   4.47289
 Alpha virt. eigenvalues --    4.48757   4.51388   4.51946   4.55198   4.55782
 Alpha virt. eigenvalues --    4.58807   4.60619   4.61106   4.64016   4.65112
 Alpha virt. eigenvalues --    4.68501   4.71418   4.72344   4.73853   4.74512
 Alpha virt. eigenvalues --    4.75591   4.77047   4.79670   4.81701   4.84199
 Alpha virt. eigenvalues --    4.84935   4.86141   4.89225   4.92504   4.95285
 Alpha virt. eigenvalues --    5.00169   5.04019   5.07216   5.09519   5.11453
 Alpha virt. eigenvalues --    5.13177   5.16783   5.19788   5.24181   5.29205
 Alpha virt. eigenvalues --    5.33530   5.40542   5.43472   5.44967   5.49037
 Alpha virt. eigenvalues --    5.50066   5.55002   5.55925   5.56949   5.61164
 Alpha virt. eigenvalues --    5.67078   5.72044   5.72828   5.89067   5.96290
 Alpha virt. eigenvalues --    5.98264   6.05740   6.10625   6.13579   6.38710
 Alpha virt. eigenvalues --    6.61031   6.79516   6.98681   7.31249  10.21217
 Alpha virt. eigenvalues --   11.23944  11.36092  11.92625  12.14033  12.24730
 Alpha virt. eigenvalues --   12.99467  13.30024  13.50499
          Condensed to atoms (all electrons):
               1          2          3          4          5          6
     1  C    5.031639   0.380794  -0.049056  -0.032808  -0.004420  -0.005853
     2  C    0.380794   4.919163   0.374089   0.292951  -0.026675  -0.012203
     3  C   -0.049056   0.374089   5.085521  -0.039209   0.000651   0.003277
     4  C   -0.032808   0.292951  -0.039209   4.848356   0.346673   0.314386
     5  O   -0.004420  -0.026675   0.000651   0.346673   7.868098  -0.044852
     6  C   -0.005853  -0.012203   0.003277   0.314386  -0.044852   5.089601
     7  C    0.004150  -0.123358   0.006838   0.000379   0.006637   0.464755
     8  C   -0.018569   0.288961  -0.023440  -0.026288  -0.001491   0.022106
     9  O   -0.005526  -0.075589  -0.005545   0.003741  -0.000007   0.002177
    10  H    0.365057  -0.019637   0.005544  -0.005619   0.002664   0.002144
    11  H    0.371004  -0.019073  -0.004585  -0.005304   0.006358   0.000264
    12  H    0.364840  -0.025615  -0.004304   0.005061   0.000438  -0.000035
    13  H    0.005123  -0.019267   0.362565  -0.006399   0.000018   0.000063
    14  H   -0.003045  -0.023606   0.367653   0.004208  -0.000046  -0.000240
    15  H   -0.005150  -0.018328   0.366885  -0.001935   0.000425   0.000073
    16  H    0.006236  -0.049430  -0.010808   0.368188  -0.036942  -0.060314
    17  H    0.000071   0.007619  -0.000059  -0.055497   0.306764  -0.000100
    18  H   -0.000119   0.004075  -0.000114  -0.046162  -0.000650   0.356276
    19  H   -0.000105   0.005982  -0.000125   0.003874  -0.000012  -0.038884
               7          8          9         10         11         12
     1  C    0.004150  -0.018569  -0.005526   0.365057   0.371004   0.364840
     2  C   -0.123358   0.288961  -0.075589  -0.019637  -0.019073  -0.025615
     3  C    0.006838  -0.023440  -0.005545   0.005544  -0.004585  -0.004304
     4  C    0.000379  -0.026288   0.003741  -0.005619  -0.005304   0.005061
     5  O    0.006637  -0.001491  -0.000007   0.002664   0.006358   0.000438
     6  C    0.464755   0.022106   0.002177   0.002144   0.000264  -0.000035
     7  C    5.220639   0.326428  -0.065092   0.003890  -0.000296   0.000248
     8  C    0.326428   4.288004   0.798903  -0.002805   0.002407  -0.001610
     9  O   -0.065092   0.798903   7.681390  -0.000128   0.000039   0.004521
    10  H    0.003890  -0.002805  -0.000128   0.587915  -0.030233  -0.029616
    11  H   -0.000296   0.002407   0.000039  -0.030233   0.580743  -0.031751
    12  H    0.000248  -0.001610   0.004521  -0.029616  -0.031751   0.588081
    13  H    0.001175  -0.001885   0.000293  -0.000195  -0.000045  -0.000033
    14  H    0.000533  -0.003068   0.008795  -0.000019  -0.000420   0.004244
    15  H   -0.000247   0.002540   0.000153  -0.000063   0.004208  -0.000209
    16  H    0.004366   0.001807   0.000048   0.000072   0.000069  -0.000116
    17  H    0.000192  -0.000202   0.000001  -0.000048  -0.000258  -0.000005
    18  H   -0.026879   0.003121  -0.000053  -0.000066  -0.000004   0.000009
    19  H    0.355576  -0.026776  -0.000042  -0.000074   0.000008  -0.000017
              13         14         15         16         17         18
     1  C    0.005123  -0.003045  -0.005150   0.006236   0.000071  -0.000119
     2  C   -0.019267  -0.023606  -0.018328  -0.049430   0.007619   0.004075
     3  C    0.362565   0.367653   0.366885  -0.010808  -0.000059  -0.000114
     4  C   -0.006399   0.004208  -0.001935   0.368188  -0.055497  -0.046162
     5  O    0.000018  -0.000046   0.000425  -0.036942   0.306764  -0.000650
     6  C    0.000063  -0.000240   0.000073  -0.060314  -0.000100   0.356276
     7  C    0.001175   0.000533  -0.000247   0.004366   0.000192  -0.026879
     8  C   -0.001885  -0.003068   0.002540   0.001807  -0.000202   0.003121
     9  O    0.000293   0.008795   0.000153   0.000048   0.000001  -0.000053
    10  H   -0.000195  -0.000019  -0.000063   0.000072  -0.000048  -0.000066
    11  H   -0.000045  -0.000420   0.004208   0.000069  -0.000258  -0.000004
    12  H   -0.000033   0.004244  -0.000209  -0.000116  -0.000005   0.000009
    13  H    0.603418  -0.028674  -0.033027   0.005412  -0.000004  -0.000009
    14  H   -0.028674   0.567648  -0.031263   0.000031   0.000007   0.000005
    15  H   -0.033027  -0.031263   0.598277   0.001045  -0.000070   0.000000
    16  H    0.005412   0.000031   0.001045   0.695083  -0.006464  -0.000715
    17  H   -0.000004   0.000007  -0.000070  -0.006464   0.458244   0.002553
    18  H   -0.000009   0.000005   0.000000  -0.000715   0.002553   0.600388
    19  H   -0.000005  -0.000012   0.000003  -0.000229  -0.000004  -0.003121
              19
     1  C   -0.000105
     2  C    0.005982
     3  C   -0.000125
     4  C    0.003874
     5  O   -0.000012
     6  C   -0.038884
     7  C    0.355576
     8  C   -0.026776
     9  O   -0.000042
    10  H   -0.000074
    11  H    0.000008
    12  H   -0.000017
    13  H   -0.000005
    14  H   -0.000012
    15  H    0.000003
    16  H   -0.000229
    17  H   -0.000004
    18  H   -0.003121
    19  H    0.582810
 Mulliken charges:
               1
     1  C   -0.404263
     2  C    0.139149
     3  C   -0.435779
     4  C    0.031403
     5  O   -0.423633
     6  C   -0.092641
     7  C   -0.179935
     8  C    0.371857
     9  O   -0.348079
    10  H    0.121217
    11  H    0.126868
    12  H    0.125868
    13  H    0.111474
    14  H    0.137270
    15  H    0.116683
    16  H    0.082661
    17  H    0.287261
    18  H    0.111466
    19  H    0.121153
 Sum of Mulliken charges =   0.00000
 Mulliken charges with hydrogens summed into heavy atoms:
               1
     1  C   -0.030311
     2  C    0.139149
     3  C   -0.070351
     4  C    0.114064
     5  O   -0.136372
     6  C    0.018825
     7  C   -0.058782
     8  C    0.371857
     9  O   -0.348079
 Electronic spatial extent (au):  <R**2>=           1073.2132
 Charge=              0.0000 electrons
 Dipole moment (field-independent basis, Debye):
    X=             -3.4017    Y=              1.2985    Z=             -1.2522  Tot=              3.8505
 Quadrupole moment (field-independent basis, Debye-Ang):
   XX=            -56.8045   YY=            -49.5573   ZZ=            -53.1209
   XY=             -3.4866   XZ=              2.4664   YZ=             -0.0670
 Traceless Quadrupole moment (field-independent basis, Debye-Ang):
   XX=             -3.6436   YY=              3.6036   ZZ=              0.0400
   XY=             -3.4866   XZ=              2.4664   YZ=             -0.0670
 Octapole moment (field-independent basis, Debye-Ang**2):
  XXX=            -47.0623  YYY=              8.2322  ZZZ=              0.8484  XYY=             -0.2802
  XXY=              6.2856  XXZ=             -7.9020  XZZ=              0.0936  YZZ=             -0.7088
  YYZ=              1.8306  XYZ=              0.4990
 Hexadecapole moment (field-independent basis, Debye-Ang**3):
 XXXX=           -566.8448 YYYY=           -503.9224 ZZZZ=           -233.2753 XXXY=            -26.2955
 XXXZ=             12.9984 YYYX=              7.3705 YYYZ=              1.0264 ZZZX=              0.9859
 ZZZY=              0.2311 XXYY=           -177.4322 XXZZ=           -137.6389 YYZZ=           -133.6601
 XXYZ=             -2.0528 YYXZ=              3.2066 ZZXY=              1.7016
 N-N= 4.641921198531D+02 E-N=-1.915423103494D+03  KE= 4.200925507667D+02
 Calling FoFJK, ICntrl=      2127 FMM=F ISym2X=0 I1Cent= 0 IOpClX= 0 NMat=1 NMatS=1 NMatT=0.
 ***** Axes restored to original set *****
 -------------------------------------------------------------------
 Center     Atomic                   Forces (Hartrees/Bohr)
 Number     Number              X              Y              Z
 -------------------------------------------------------------------
      1        6          -0.000003181   -0.000010796    0.000015984
      2        6          -0.000009482    0.000030430   -0.000011168
      3        6           0.000003308   -0.000014043   -0.000004152
      4        6           0.000001672   -0.000010002    0.000007051
      5        8          -0.000004664    0.000010331   -0.000004652
      6        6          -0.000007450    0.000012689   -0.000001749
      7        6           0.000006290    0.000007042   -0.000000046
      8        6           0.000018249   -0.000030999    0.000001467
      9        8          -0.000012756    0.000002062   -0.000004236
     10        1          -0.000000500    0.000003445   -0.000001894
     11        1           0.000003717    0.000003504    0.000001948
     12        1           0.000002570    0.000000768   -0.000001199
     13        1           0.000004175   -0.000003544    0.000002341
     14        1           0.000002417   -0.000001186    0.000004620
     15        1           0.000003823    0.000000832    0.000004607
     16        1           0.000003863    0.000001757   -0.000000081
     17        1           0.000003860    0.000005140    0.000002474
     18        1          -0.000003277   -0.000000970   -0.000003383
     19        1          -0.000012634   -0.000006460   -0.000007933
 -------------------------------------------------------------------
 Cartesian Forces:  Max     0.000030999 RMS     0.000008734

 GradGradGradGradGradGradGradGradGradGradGradGradGradGradGradGradGradGrad
 Berny optimization.
 FormGI is forming the generalized inverse of G from B-inverse, IUseBI=4.
 Internal  Forces:  Max     0.000018422 RMS     0.000003622
 Search for a local minimum.
 Step number   1 out of a maximum of  113
 All quantities printed in internal units (Hartrees-Bohrs-Radians)
 Mixed Optimization -- En-DIIS/RFO-DIIS
 Second derivative matrix not updated -- first step.
 ITU=  0
     Eigenvalues ---    0.00230   0.00334   0.00354   0.00546   0.01297
     Eigenvalues ---    0.01388   0.01409   0.02129   0.04120   0.04851
     Eigenvalues ---    0.05065   0.05443   0.05478   0.05627   0.05636
     Eigenvalues ---    0.05809   0.06868   0.07956   0.11073   0.14452
     Eigenvalues ---    0.15992   0.15999   0.16000   0.16000   0.16000
     Eigenvalues ---    0.16000   0.16000   0.16000   0.16000   0.17635
     Eigenvalues ---    0.22029   0.24996   0.26272   0.27304   0.28345
     Eigenvalues ---    0.29181   0.29981   0.33213   0.33442   0.34206
     Eigenvalues ---    0.34276   0.34417   0.34449   0.34457   0.34572
     Eigenvalues ---    0.35265   0.35648   0.42252   0.54238   0.54979
     Eigenvalues ---    1.00284
 RFO step:  Lambda= 0.00000000D+00 EMin= 2.30000000D-03
 Linear search not attempted -- first point.
 Iteration  1 RMS(Cart)=  0.00006556 RMS(Int)=  0.00000000
 Iteration  2 RMS(Cart)=  0.00000000 RMS(Int)=  0.00000000
 Variable       Old X    -DE/DX   Delta X   Delta X   Delta X     New X
                                 (Linear)    (Quad)   (Total)
    R1        2.91390  -0.00001   0.00000  -0.00004  -0.00004   2.91386
    R2        2.06566   0.00000   0.00000   0.00000   0.00000   2.06566
    R3        2.06376   0.00000   0.00000   0.00000   0.00000   2.06376
    R4        2.06633   0.00000   0.00000   0.00000   0.00000   2.06633
    R5        2.89628   0.00000   0.00000  -0.00001  -0.00001   2.89626
    R6        2.93635   0.00000   0.00000  -0.00001  -0.00001   2.93633
    R7        2.92313   0.00002   0.00000   0.00007   0.00007   2.92320
    R8        2.06984   0.00000   0.00000   0.00000   0.00000   2.06984
    R9        2.06579   0.00000   0.00000   0.00000   0.00000   2.06578
   R10        2.06867   0.00000   0.00000   0.00001   0.00001   2.06868
   R11        2.68603   0.00001   0.00000   0.00001   0.00001   2.68604
   R12        2.86451  -0.00001   0.00000  -0.00002  -0.00002   2.86449
   R13        2.08282   0.00000   0.00000  -0.00001  -0.00001   2.08282
   R14        1.81850   0.00000   0.00000  -0.00001  -0.00001   1.81850
   R15        2.52423   0.00000   0.00000   0.00000   0.00000   2.52423
   R16        2.05247   0.00000   0.00000   0.00001   0.00001   2.05247
   R17        2.80126   0.00000   0.00000  -0.00001  -0.00001   2.80125
   R18        2.04635   0.00000   0.00000   0.00000   0.00000   2.04635
   R19        2.28525  -0.00001   0.00000  -0.00001  -0.00001   2.28524
    A1        1.94966   0.00000   0.00000   0.00002   0.00002   1.94968
    A2        1.92746   0.00000   0.00000   0.00001   0.00001   1.92747
    A3        1.90399   0.00000   0.00000   0.00002   0.00002   1.90401
    A4        1.88065   0.00000   0.00000  -0.00001  -0.00001   1.88064
    A5        1.89434   0.00000   0.00000  -0.00001  -0.00001   1.89433
    A6        1.90703   0.00000   0.00000  -0.00002  -0.00002   1.90701
    A7        1.92709   0.00000   0.00000   0.00003   0.00003   1.92712
    A8        1.95018   0.00000   0.00000   0.00000   0.00000   1.95018
    A9        1.86983   0.00000   0.00000   0.00000   0.00000   1.86983
   A10        1.98059   0.00000   0.00000  -0.00002  -0.00002   1.98057
   A11        1.92924   0.00000   0.00000   0.00000   0.00000   1.92924
   A12        1.80009   0.00000   0.00000  -0.00002  -0.00002   1.80007
   A13        1.94656   0.00000   0.00000   0.00000   0.00000   1.94656
   A14        1.91736   0.00001   0.00000   0.00004   0.00004   1.91740
   A15        1.93331   0.00000   0.00000   0.00000   0.00000   1.93331
   A16        1.87947   0.00000   0.00000  -0.00001  -0.00001   1.87946
   A17        1.88806   0.00000   0.00000  -0.00001  -0.00001   1.88805
   A18        1.89754   0.00000   0.00000  -0.00002  -0.00002   1.89752
   A19        1.94524   0.00000   0.00000  -0.00002  -0.00002   1.94522
   A20        1.82105   0.00000   0.00000   0.00001   0.00001   1.82106
   A21        1.90542   0.00000   0.00000  -0.00002  -0.00002   1.90541
   A22        1.97836   0.00000   0.00000   0.00000   0.00000   1.97836
   A23        1.91183   0.00000   0.00000   0.00002   0.00002   1.91185
   A24        1.89900   0.00000   0.00000   0.00001   0.00001   1.89901
   A25        1.88950  -0.00001   0.00000  -0.00003  -0.00003   1.88947
   A26        1.97126   0.00000   0.00000   0.00001   0.00001   1.97127
   A27        2.11691   0.00000   0.00000   0.00002   0.00002   2.11693
   A28        2.19464  -0.00001   0.00000  -0.00003  -0.00003   2.19461
   A29        1.91612   0.00000   0.00000   0.00000   0.00000   1.91611
   A30        2.22685  -0.00001   0.00000  -0.00005  -0.00005   2.22680
   A31        2.14016   0.00001   0.00000   0.00006   0.00006   2.14022
   A32        1.88253   0.00000   0.00000  -0.00001  -0.00001   1.88252
   A33        2.18306  -0.00001   0.00000  -0.00003  -0.00003   2.18303
   A34        2.21752   0.00001   0.00000   0.00004   0.00004   2.21756
    D1        3.14105   0.00000   0.00000   0.00010   0.00010   3.14115
    D2       -0.92026   0.00000   0.00000   0.00010   0.00010  -0.92016
    D3        1.03921   0.00000   0.00000   0.00008   0.00008   1.03929
    D4       -1.04939   0.00000   0.00000   0.00010   0.00010  -1.04929
    D5        1.17248   0.00000   0.00000   0.00010   0.00010   1.17258
    D6        3.13194   0.00000   0.00000   0.00008   0.00008   3.13203
    D7        1.04678   0.00000   0.00000   0.00009   0.00009   1.04687
    D8       -3.01453   0.00000   0.00000   0.00009   0.00009  -3.01444
    D9       -1.05507   0.00000   0.00000   0.00007   0.00007  -1.05499
   D10        3.12133   0.00000   0.00000   0.00014   0.00014   3.12147
   D11       -1.07932   0.00000   0.00000   0.00015   0.00015  -1.07917
   D12        1.01732   0.00000   0.00000   0.00015   0.00015   1.01747
   D13        0.91637   0.00000   0.00000   0.00013   0.00013   0.91650
   D14        2.99891   0.00000   0.00000   0.00014   0.00014   2.99905
   D15       -1.18764   0.00000   0.00000   0.00014   0.00014  -1.18750
   D16       -1.09599   0.00000   0.00000   0.00017   0.00017  -1.09582
   D17        0.98655   0.00000   0.00000   0.00017   0.00017   0.98673
   D18        3.08319   0.00000   0.00000   0.00017   0.00017   3.08336
   D19       -0.37046   0.00000   0.00000  -0.00004  -0.00004  -0.37050
   D20        1.77081   0.00000   0.00000  -0.00005  -0.00005   1.77077
   D21       -2.48473   0.00000   0.00000  -0.00004  -0.00004  -2.48477
   D22        1.82224   0.00000   0.00000  -0.00001  -0.00001   1.82223
   D23       -2.31968   0.00000   0.00000  -0.00002  -0.00002  -2.31969
   D24       -0.29203   0.00000   0.00000  -0.00001  -0.00001  -0.29204
   D25       -2.37329   0.00000   0.00000  -0.00004  -0.00004  -2.37333
   D26       -0.23202   0.00000   0.00000  -0.00004  -0.00004  -0.23206
   D27        1.79562   0.00000   0.00000  -0.00004  -0.00004   1.79559
   D28       -1.83695   0.00000   0.00000   0.00004   0.00004  -1.83691
   D29        1.29232   0.00000   0.00000   0.00005   0.00005   1.29237
   D30        2.34576   0.00000   0.00000   0.00000   0.00000   2.34576
   D31       -0.80816   0.00000   0.00000   0.00001   0.00001  -0.80815
   D32        0.22303   0.00000   0.00000   0.00003   0.00003   0.22307
   D33       -2.93088   0.00000   0.00000   0.00004   0.00004  -2.93084
   D34       -2.98472   0.00000   0.00000  -0.00005  -0.00005  -2.98476
   D35        1.25024   0.00000   0.00000  -0.00005  -0.00005   1.25020
   D36       -0.87419   0.00000   0.00000  -0.00007  -0.00007  -0.87426
   D37        0.17684   0.00000   0.00000   0.00004   0.00004   0.17688
   D38       -2.99263   0.00000   0.00000   0.00003   0.00003  -2.99260
   D39        2.29631   0.00000   0.00000   0.00002   0.00002   2.29633
   D40       -0.87316   0.00000   0.00000   0.00001   0.00001  -0.87315
   D41       -1.85528   0.00000   0.00000   0.00005   0.00005  -1.85523
   D42        1.25844   0.00000   0.00000   0.00004   0.00004   1.25848
   D43       -0.03417   0.00000   0.00000  -0.00001  -0.00001  -0.03418
   D44        3.09591   0.00000   0.00000   0.00001   0.00001   3.09593
   D45        3.13678   0.00000   0.00000   0.00000   0.00000   3.13678
   D46       -0.01633   0.00000   0.00000   0.00002   0.00002  -0.01630
   D47       -0.12610   0.00000   0.00000  -0.00002  -0.00002  -0.12611
   D48        3.02813   0.00000   0.00000  -0.00002  -0.00002   3.02811
   D49        3.02633   0.00000   0.00000  -0.00004  -0.00004   3.02629
   D50       -0.10263   0.00000   0.00000  -0.00004  -0.00004  -0.10267
         Item               Value     Threshold  Converged?
 Maximum Force            0.000018     0.000450     YES
 RMS     Force            0.000004     0.000300     YES
 Maximum Displacement     0.000298     0.001800     YES
 RMS     Displacement     0.000066     0.001200     YES
 Predicted change in Energy=-3.494206D-09
 Optimization completed.
    -- Stationary point found.
                           ----------------------------
                           !   Optimized Parameters   !
                           ! (Angstroms and Degrees)  !
 --------------------------                            --------------------------
 ! Name  Definition              Value          Derivative Info.                !
 --------------------------------------------------------------------------------
 ! R1    R(1,2)                  1.542          -DE/DX =    0.0                 !
 ! R2    R(1,10)                 1.0931         -DE/DX =    0.0                 !
 ! R3    R(1,11)                 1.0921         -DE/DX =    0.0                 !
 ! R4    R(1,12)                 1.0935         -DE/DX =    0.0                 !
 ! R5    R(2,3)                  1.5326         -DE/DX =    0.0                 !
 ! R6    R(2,4)                  1.5538         -DE/DX =    0.0                 !
 ! R7    R(2,8)                  1.5469         -DE/DX =    0.0                 !
 ! R8    R(3,13)                 1.0953         -DE/DX =    0.0                 !
 ! R9    R(3,14)                 1.0932         -DE/DX =    0.0                 !
 ! R10   R(3,15)                 1.0947         -DE/DX =    0.0                 !
 ! R11   R(4,5)                  1.4214         -DE/DX =    0.0                 !
 ! R12   R(4,6)                  1.5158         -DE/DX =    0.0                 !
 ! R13   R(4,16)                 1.1022         -DE/DX =    0.0                 !
 ! R14   R(5,17)                 0.9623         -DE/DX =    0.0                 !
 ! R15   R(6,7)                  1.3358         -DE/DX =    0.0                 !
 ! R16   R(6,18)                 1.0861         -DE/DX =    0.0                 !
 ! R17   R(7,8)                  1.4824         -DE/DX =    0.0                 !
 ! R18   R(7,19)                 1.0829         -DE/DX =    0.0                 !
 ! R19   R(8,9)                  1.2093         -DE/DX =    0.0                 !
 ! A1    A(2,1,10)             111.7074         -DE/DX =    0.0                 !
 ! A2    A(2,1,11)             110.4354         -DE/DX =    0.0                 !
 ! A3    A(2,1,12)             109.0904         -DE/DX =    0.0                 !
 ! A4    A(10,1,11)            107.7532         -DE/DX =    0.0                 !
 ! A5    A(10,1,12)            108.5379         -DE/DX =    0.0                 !
 ! A6    A(11,1,12)            109.265          -DE/DX =    0.0                 !
 ! A7    A(1,2,3)              110.4138         -DE/DX =    0.0                 !
 ! A8    A(1,2,4)              111.7368         -DE/DX =    0.0                 !
 ! A9    A(1,2,8)              107.1334         -DE/DX =    0.0                 !
 ! A10   A(3,2,4)              113.4795         -DE/DX =    0.0                 !
 ! A11   A(3,2,8)              110.5373         -DE/DX =    0.0                 !
 ! A12   A(4,2,8)              103.1374         -DE/DX =    0.0                 !
 ! A13   A(2,3,13)             111.5296         -DE/DX =    0.0                 !
 ! A14   A(2,3,14)             109.8565         -DE/DX =    0.0                 !
 ! A15   A(2,3,15)             110.7706         -DE/DX =    0.0                 !
 ! A16   A(13,3,14)            107.6858         -DE/DX =    0.0                 !
 ! A17   A(13,3,15)            108.1778         -DE/DX =    0.0                 !
 ! A18   A(14,3,15)            108.721          -DE/DX =    0.0                 !
 ! A19   A(2,4,5)              111.4541         -DE/DX =    0.0                 !
 ! A20   A(2,4,6)              104.3388         -DE/DX =    0.0                 !
 ! A21   A(2,4,16)             109.1727         -DE/DX =    0.0                 !
 ! A22   A(5,4,6)              113.3518         -DE/DX =    0.0                 !
 ! A23   A(5,4,16)             109.54           -DE/DX =    0.0                 !
 ! A24   A(6,4,16)             108.8046         -DE/DX =    0.0                 !
 ! A25   A(4,5,17)             108.2603         -DE/DX =    0.0                 !
 ! A26   A(4,6,7)              112.945          -DE/DX =    0.0                 !
 ! A27   A(4,6,18)             121.2898         -DE/DX =    0.0                 !
 ! A28   A(7,6,18)             125.7436         -DE/DX =    0.0                 !
 ! A29   A(6,7,8)              109.7853         -DE/DX =    0.0                 !
 ! A30   A(6,7,19)             127.5893         -DE/DX =    0.0                 !
 ! A31   A(8,7,19)             122.622          -DE/DX =    0.0                 !
 ! A32   A(2,8,7)              107.8611         -DE/DX =    0.0                 !
 ! A33   A(2,8,9)              125.08           -DE/DX =    0.0                 !
 ! A34   A(7,8,9)              127.0546         -DE/DX =    0.0                 !
 ! D1    D(10,1,2,3)           179.9692         -DE/DX =    0.0                 !
 ! D2    D(10,1,2,4)           -52.7269         -DE/DX =    0.0                 !
 ! D3    D(10,1,2,8)            59.5421         -DE/DX =    0.0                 !
 ! D4    D(11,1,2,3)           -60.1258         -DE/DX =    0.0                 !
 ! D5    D(11,1,2,4)            67.1781         -DE/DX =    0.0                 !
 ! D6    D(11,1,2,8)           179.4471         -DE/DX =    0.0                 !
 ! D7    D(12,1,2,3)            59.9762         -DE/DX =    0.0                 !
 ! D8    D(12,1,2,4)          -172.7198         -DE/DX =    0.0                 !
 ! D9    D(12,1,2,8)           -60.4508         -DE/DX =    0.0                 !
 ! D10   D(1,2,3,13)           178.8388         -DE/DX =    0.0                 !
 ! D11   D(1,2,3,14)           -61.8405         -DE/DX =    0.0                 !
 ! D12   D(1,2,3,15)            58.2879         -DE/DX =    0.0                 !
 ! D13   D(4,2,3,13)            52.5042         -DE/DX =    0.0                 !
 ! D14   D(4,2,3,14)           171.825          -DE/DX =    0.0                 !
 ! D15   D(4,2,3,15)           -68.0467         -DE/DX =    0.0                 !
 ! D16   D(8,2,3,13)           -62.7956         -DE/DX =    0.0                 !
 ! D17   D(8,2,3,14)            56.5252         -DE/DX =    0.0                 !
 ! D18   D(8,2,3,15)           176.6535         -DE/DX =    0.0                 !
 ! D19   D(1,2,4,5)            -21.2257         -DE/DX =    0.0                 !
 ! D20   D(1,2,4,6)            101.4601         -DE/DX =    0.0                 !
 ! D21   D(1,2,4,16)          -142.3644         -DE/DX =    0.0                 !
 ! D22   D(3,2,4,5)            104.4066         -DE/DX =    0.0                 !
 ! D23   D(3,2,4,6)           -132.9076         -DE/DX =    0.0                 !
 ! D24   D(3,2,4,16)           -16.732          -DE/DX =    0.0                 !
 ! D25   D(8,2,4,5)           -135.9798         -DE/DX =    0.0                 !
 ! D26   D(8,2,4,6)            -13.294          -DE/DX =    0.0                 !
 ! D27   D(8,2,4,16)           102.8816         -DE/DX =    0.0                 !
 ! D28   D(1,2,8,7)           -105.2495         -DE/DX =    0.0                 !
 ! D29   D(1,2,8,9)             74.0445         -DE/DX =    0.0                 !
 ! D30   D(3,2,8,7)            134.4021         -DE/DX =    0.0                 !
 ! D31   D(3,2,8,9)            -46.304          -DE/DX =    0.0                 !
 ! D32   D(4,2,8,7)             12.7788         -DE/DX =    0.0                 !
 ! D33   D(4,2,8,9)           -167.9272         -DE/DX =    0.0                 !
 ! D34   D(2,4,5,17)          -171.0116         -DE/DX =    0.0                 !
 ! D35   D(6,4,5,17)            71.6336         -DE/DX =    0.0                 !
 ! D36   D(16,4,5,17)          -50.0874         -DE/DX =    0.0                 !
 ! D37   D(2,4,6,7)             10.1322         -DE/DX =    0.0                 !
 ! D38   D(2,4,6,18)          -171.4651         -DE/DX =    0.0                 !
 ! D39   D(5,4,6,7)            131.569          -DE/DX =    0.0                 !
 ! D40   D(5,4,6,18)           -50.0283         -DE/DX =    0.0                 !
 ! D41   D(16,4,6,7)          -106.2996         -DE/DX =    0.0                 !
 ! D42   D(16,4,6,18)           72.1031         -DE/DX =    0.0                 !
 ! D43   D(4,6,7,8)             -1.9575         -DE/DX =    0.0                 !
 ! D44   D(4,6,7,19)           177.3828         -DE/DX =    0.0                 !
 ! D45   D(18,6,7,8)           179.7243         -DE/DX =    0.0                 !
 ! D46   D(18,6,7,19)           -0.9354         -DE/DX =    0.0                 !
 ! D47   D(6,7,8,2)             -7.2248         -DE/DX =    0.0                 !
 ! D48   D(6,7,8,9)            173.4992         -DE/DX =    0.0                 !
 ! D49   D(19,7,8,2)           173.3958         -DE/DX =    0.0                 !
 ! D50   D(19,7,8,9)            -5.8802         -DE/DX =    0.0                 !
 --------------------------------------------------------------------------------
 GradGradGradGradGradGradGradGradGradGradGradGradGradGradGradGradGradGrad

                          Input orientation:                          
 ---------------------------------------------------------------------
 Center     Atomic      Atomic             Coordinates (Angstroms)
 Number     Number       Type             X           Y           Z
 ---------------------------------------------------------------------
      1          6           0       -0.639631    1.922902   -1.374649
      2          6           0       -0.949098    1.240742   -0.026850
      3          6           0       -0.763474    2.230665    1.128398
      4          6           0       -2.343066    0.554296   -0.035986
      5          8           0       -3.184524    1.099650   -1.043396
      6          6           0       -2.036159   -0.915984   -0.240519
      7          6           0       -0.734787   -1.196465   -0.130872
      8          6           0        0.028119    0.050236    0.116328
      9          8           0        1.206351    0.145041    0.371668
     10          1           0       -0.765065    1.234488   -2.214422
     11          1           0       -1.309441    2.770281   -1.535799
     12          1           0        0.394840    2.277094   -1.367003
     13          1           0       -0.998640    1.770221    2.094007
     14          1           0        0.275856    2.567466    1.165409
     15          1           0       -1.411319    3.103610    0.999500
     16          1           0       -2.817092    0.684401    0.950512
     17          1           0       -4.071451    0.747803   -0.918475
     18          1           0       -2.827017   -1.636702   -0.426977
     19          1           0       -0.260909   -2.168130   -0.193637
 ---------------------------------------------------------------------
                    Distance matrix (angstroms):
                    1          2          3          4          5
     1  C    0.000000
     2  C    1.541971   0.000000
     3  C    2.524936   1.532645   0.000000
     4  C    2.562575   1.553847   2.580913   0.000000
     5  O    2.695172   2.459757   3.443453   1.421386   0.000000
     6  C    3.360924   2.424629   3.659926   1.515833   2.454818
     7  C    3.359537   2.448823   3.651275   2.379229   3.479376
     8  C    2.485111   1.546854   2.530845   2.428950   3.573137
     9  O    3.101299   2.450579   2.966931   3.596113   4.710994
    10  H    1.093099   2.195309   3.488097   2.774587   2.691331
    11  H    1.092093   2.178592   2.772582   2.868520   2.559180
    12  H    1.093453   2.162454   2.751523   3.497967   3.781923
    13  H    3.490526   2.186512   1.095313   2.796932   3.882145
    14  H    2.775874   2.163837   1.093167   3.514962   4.359763
    15  H    2.761550   2.176538   1.094692   2.905062   3.366532
    16  H    3.417835   2.180402   2.576805   1.102182   2.069566
    17  H    3.656001   3.284368   4.163085   1.950268   0.962310
    18  H    4.284100   3.459244   4.651229   2.277621   2.827615
    19  H    4.274898   3.481642   4.620579   3.431011   4.466319
                    6          7          8          9         10
     6  C    0.000000
     7  C    1.335763   0.000000
     8  C    2.306983   1.482363   0.000000
     9  O    3.466182   2.412509   1.209304   0.000000
    10  H    3.183787   3.201817   2.732030   3.429465   0.000000
    11  H    3.974219   4.247249   3.452135   4.106035   1.765087
    12  H    4.168270   3.856125   2.700677   2.868306   1.774972
    13  H    3.707042   3.717652   2.814924   3.235683   4.347888
    14  H    4.410949   4.107180   2.738319   2.713667   3.779366
    15  H    4.252671   4.497342   3.489279   3.999938   3.773666
    16  H    2.142345   3.007166   3.032038   4.100495   3.811852
    17  H    2.714815   3.941297   4.285311   5.466532   3.584484
    18  H    1.086120   2.158452   3.360468   4.481127   3.961103
    19  H    2.172921   1.082881   2.258487   2.796994   3.989430
                   11         12         13         14         15
    11  H    0.000000
    12  H    1.782217   0.000000
    13  H    3.777858   3.765276   0.000000
    14  H    3.138603   2.551781   1.766984   0.000000
    15  H    2.559147   3.089608   1.773747   1.778071   0.000000
    16  H    3.578498   4.268964   2.406939   3.627457   2.798423
    17  H    3.478534   4.742116   4.422958   5.152943   4.037915
    18  H    4.791035   5.155755   4.615783   5.462467   5.148747
    19  H    5.223860   4.644008   4.613911   4.955905   5.526144
                   16         17         18         19
    16  H    0.000000
    17  H    2.251787   0.000000
    18  H    2.699091   2.734236   0.000000
    19  H    3.997510   4.852658   2.630927   0.000000
 Stoichiometry    C7H10O2
 Framework group  C1[X(C7H10O2)]
 Deg. of freedom    51
 Full point group                 C1      NOp   1
 Largest Abelian subgroup         C1      NOp   1
 Largest concise Abelian subgroup C1      NOp   1
                         Standard orientation:                         
 ---------------------------------------------------------------------
 Center     Atomic      Atomic             Coordinates (Angstroms)
 Number     Number       Type             X           Y           Z
 ---------------------------------------------------------------------
      1          6           0       -0.031776   -1.252407    1.318660
      2          6           0        0.121348   -0.598044   -0.069157
      3          6           0        0.546857   -1.641369   -1.108106
      4          6           0       -1.151262    0.196044   -0.474531
      5          8           0       -2.291617   -0.243816    0.251038
      6          6           0       -0.791087    1.644077   -0.207656
      7          6           0        0.505568    1.816851    0.062713
      8          6           0        1.197008    0.505627    0.063597
      9          8           0        2.386021    0.308884    0.163376
     10          1           0       -0.334717   -0.525805    2.077041
     11          1           0       -0.789972   -2.037829    1.288333
     12          1           0        0.926254   -1.687102    1.616751
     13          1           0        0.641298   -1.199672   -2.105952
     14          1           0        1.519504   -2.060203   -0.836907
     15          1           0       -0.183278   -2.455179   -1.162579
     16          1           0       -1.329400    0.067497   -1.554599
     17          1           0       -3.070869    0.172029   -0.130905
     18          1           0       -1.536935    2.431280   -0.268306
     19          1           0        1.022957    2.749776    0.248697
 ---------------------------------------------------------------------
 Rotational constants (GHZ):      2.2563125      1.6846018      1.2398150
 1\1\GINC-ALCHEMY-RB\FOpt\RB3LYP\6-31G(2df,p)\C7H10O2\PUCK\28-Jan-2020\
 0\\# b3lyp 6-31G(2df,p) opt Freq\\titel\\0,1\C,-0.6396305826,1.9229015
 49,-1.3746486086\C,-0.9490975492,1.2407424802,-0.0268495326\C,-0.76347
 43188,2.2306649744,1.1283984986\C,-2.3430662236,0.5542963094,-0.035985
 6207\O,-3.1845238671,1.0996504436,-1.0433958437\C,-2.0361594672,-0.915
 9837735,-0.2405189604\C,-0.7347869358,-1.1964654803,-0.1308715778\C,0.
 0281194169,0.0502362162,0.1163282343\O,1.2063506584,0.1450408021,0.371
 6677186\H,-0.7650648483,1.2344879963,-2.2144217926\H,-1.3094409615,2.7
 702805811,-1.5357991501\H,0.3948399581,2.2770943993,-1.3670034938\H,-0
 .9986395336,1.7702212137,2.0940072485\H,0.2758563084,2.5674661722,1.16
 54093864\H,-1.41131902,3.1036104923,0.9995002437\H,-2.8170922751,0.684
 4010985,0.9505117203\H,-4.0714505837,0.7478030778,-0.9184745899\H,-2.8
 270169686,-1.6367017372,-0.426977277\H,-0.2609085269,-2.1681298151,-0.
 1936370131\\Version=ES64L-G09RevD.01\State=1-A\HF=-423.2195613\RMSD=6.
 890e-09\RMSF=8.734e-06\Dipole=-1.4597192,-0.3997089,0.065805\Quadrupol
 e=-1.0338625,2.1912439,-1.1573814,2.8676532,-2.1184021,1.013418\PG=C01
  [X(C7H10O2)]\\@


 IN THE FIGHT BETWEEN YOU AND THE WORLD, BACK THE WORLD

                                        -- FRANZ KAFKA
 Job cpu time:       0 days  0 hours  8 minutes 31.4 seconds.
 File lengths (MBytes):  RWF=     52 Int=      0 D2E=      0 Chk=      7 Scr=      1
 Normal termination of Gaussian 09 at Tue Jan 28 00:03:35 2020.
 Link1:  Proceeding to internal job step number  2.
 ----------------------------------------------------------------------
 #N Geom=AllCheck Guess=TCheck SCRF=Check GenChk RB3LYP/6-31G(2df,p) Fr
 eq
 ----------------------------------------------------------------------
 1/10=4,29=7,30=1,38=1,40=1/1,3;
 2/12=2,40=1/2;
 3/5=1,6=6,7=104,11=2,14=-4,16=1,25=1,30=1,70=2,71=2,74=-5,116=1,140=1/1,2,3;
 4/5=101/1;
 5/5=2,98=1/2;
 8/6=4,10=90,11=11/1;
 11/6=1,8=1,9=11,15=111,16=1/1,2,10;
 10/6=1/2;
 6/7=2,8=2,9=2,10=2,18=1,28=1/1;
 7/8=1,10=1,25=1/1,2,3,16;
 1/10=4,30=1/3;
 99//99;
 Structure from the checkpoint file:  "/scratch/puck/g09_67579d17-31d8-4503-a692-8ffda1de4b89/Gau-116677.chk"
 -----
 titel
 -----
 Charge =  0 Multiplicity = 1
 Redundant internal coordinates found in file.
 C,0,-0.6396305826,1.922901549,-1.3746486086
 C,0,-0.9490975492,1.2407424802,-0.0268495326
 C,0,-0.7634743188,2.2306649744,1.1283984986
 C,0,-2.3430662236,0.5542963094,-0.0359856207
 O,0,-3.1845238671,1.0996504436,-1.0433958437
 C,0,-2.0361594672,-0.9159837735,-0.2405189604
 C,0,-0.7347869358,-1.1964654803,-0.1308715778
 C,0,0.0281194169,0.0502362162,0.1163282343
 O,0,1.2063506584,0.1450408021,0.3716677186
 H,0,-0.7650648483,1.2344879963,-2.2144217926
 H,0,-1.3094409615,2.7702805811,-1.5357991501
 H,0,0.3948399581,2.2770943993,-1.3670034938
 H,0,-0.9986395336,1.7702212137,2.0940072485
 H,0,0.2758563084,2.5674661722,1.1654093864
 H,0,-1.41131902,3.1036104923,0.9995002437
 H,0,-2.8170922751,0.6844010985,0.9505117203
 H,0,-4.0714505837,0.7478030778,-0.9184745899
 H,0,-2.8270169686,-1.6367017372,-0.426977277
 H,0,-0.2609085269,-2.1681298151,-0.1936370131
 Recover connectivity data from disk.

 GradGradGradGradGradGradGradGradGradGradGradGradGradGradGradGradGradGrad
 Berny optimization.
 Initialization pass.
                           ----------------------------
                           !    Initial Parameters    !
                           ! (Angstroms and Degrees)  !
 --------------------------                            --------------------------
 ! Name  Definition              Value          Derivative Info.                !
 --------------------------------------------------------------------------------
 ! R1    R(1,2)                  1.542          calculate D2E/DX2 analytically  !
 ! R2    R(1,10)                 1.0931         calculate D2E/DX2 analytically  !
 ! R3    R(1,11)                 1.0921         calculate D2E/DX2 analytically  !
 ! R4    R(1,12)                 1.0935         calculate D2E/DX2 analytically  !
 ! R5    R(2,3)                  1.5326         calculate D2E/DX2 analytically  !
 ! R6    R(2,4)                  1.5538         calculate D2E/DX2 analytically  !
 ! R7    R(2,8)                  1.5469         calculate D2E/DX2 analytically  !
 ! R8    R(3,13)                 1.0953         calculate D2E/DX2 analytically  !
 ! R9    R(3,14)                 1.0932         calculate D2E/DX2 analytically  !
 ! R10   R(3,15)                 1.0947         calculate D2E/DX2 analytically  !
 ! R11   R(4,5)                  1.4214         calculate D2E/DX2 analytically  !
 ! R12   R(4,6)                  1.5158         calculate D2E/DX2 analytically  !
 ! R13   R(4,16)                 1.1022         calculate D2E/DX2 analytically  !
 ! R14   R(5,17)                 0.9623         calculate D2E/DX2 analytically  !
 ! R15   R(6,7)                  1.3358         calculate D2E/DX2 analytically  !
 ! R16   R(6,18)                 1.0861         calculate D2E/DX2 analytically  !
 ! R17   R(7,8)                  1.4824         calculate D2E/DX2 analytically  !
 ! R18   R(7,19)                 1.0829         calculate D2E/DX2 analytically  !
 ! R19   R(8,9)                  1.2093         calculate D2E/DX2 analytically  !
 ! A1    A(2,1,10)             111.7074         calculate D2E/DX2 analytically  !
 ! A2    A(2,1,11)             110.4354         calculate D2E/DX2 analytically  !
 ! A3    A(2,1,12)             109.0904         calculate D2E/DX2 analytically  !
 ! A4    A(10,1,11)            107.7532         calculate D2E/DX2 analytically  !
 ! A5    A(10,1,12)            108.5379         calculate D2E/DX2 analytically  !
 ! A6    A(11,1,12)            109.265          calculate D2E/DX2 analytically  !
 ! A7    A(1,2,3)              110.4138         calculate D2E/DX2 analytically  !
 ! A8    A(1,2,4)              111.7368         calculate D2E/DX2 analytically  !
 ! A9    A(1,2,8)              107.1334         calculate D2E/DX2 analytically  !
 ! A10   A(3,2,4)              113.4795         calculate D2E/DX2 analytically  !
 ! A11   A(3,2,8)              110.5373         calculate D2E/DX2 analytically  !
 ! A12   A(4,2,8)              103.1374         calculate D2E/DX2 analytically  !
 ! A13   A(2,3,13)             111.5296         calculate D2E/DX2 analytically  !
 ! A14   A(2,3,14)             109.8565         calculate D2E/DX2 analytically  !
 ! A15   A(2,3,15)             110.7706         calculate D2E/DX2 analytically  !
 ! A16   A(13,3,14)            107.6858         calculate D2E/DX2 analytically  !
 ! A17   A(13,3,15)            108.1778         calculate D2E/DX2 analytically  !
 ! A18   A(14,3,15)            108.721          calculate D2E/DX2 analytically  !
 ! A19   A(2,4,5)              111.4541         calculate D2E/DX2 analytically  !
 ! A20   A(2,4,6)              104.3388         calculate D2E/DX2 analytically  !
 ! A21   A(2,4,16)             109.1727         calculate D2E/DX2 analytically  !
 ! A22   A(5,4,6)              113.3518         calculate D2E/DX2 analytically  !
 ! A23   A(5,4,16)             109.54           calculate D2E/DX2 analytically  !
 ! A24   A(6,4,16)             108.8046         calculate D2E/DX2 analytically  !
 ! A25   A(4,5,17)             108.2603         calculate D2E/DX2 analytically  !
 ! A26   A(4,6,7)              112.945          calculate D2E/DX2 analytically  !
 ! A27   A(4,6,18)             121.2898         calculate D2E/DX2 analytically  !
 ! A28   A(7,6,18)             125.7436         calculate D2E/DX2 analytically  !
 ! A29   A(6,7,8)              109.7853         calculate D2E/DX2 analytically  !
 ! A30   A(6,7,19)             127.5893         calculate D2E/DX2 analytically  !
 ! A31   A(8,7,19)             122.622          calculate D2E/DX2 analytically  !
 ! A32   A(2,8,7)              107.8611         calculate D2E/DX2 analytically  !
 ! A33   A(2,8,9)              125.08           calculate D2E/DX2 analytically  !
 ! A34   A(7,8,9)              127.0546         calculate D2E/DX2 analytically  !
 ! D1    D(10,1,2,3)           179.9692         calculate D2E/DX2 analytically  !
 ! D2    D(10,1,2,4)           -52.7269         calculate D2E/DX2 analytically  !
 ! D3    D(10,1,2,8)            59.5421         calculate D2E/DX2 analytically  !
 ! D4    D(11,1,2,3)           -60.1258         calculate D2E/DX2 analytically  !
 ! D5    D(11,1,2,4)            67.1781         calculate D2E/DX2 analytically  !
 ! D6    D(11,1,2,8)           179.4471         calculate D2E/DX2 analytically  !
 ! D7    D(12,1,2,3)            59.9762         calculate D2E/DX2 analytically  !
 ! D8    D(12,1,2,4)          -172.7198         calculate D2E/DX2 analytically  !
 ! D9    D(12,1,2,8)           -60.4508         calculate D2E/DX2 analytically  !
 ! D10   D(1,2,3,13)           178.8388         calculate D2E/DX2 analytically  !
 ! D11   D(1,2,3,14)           -61.8405         calculate D2E/DX2 analytically  !
 ! D12   D(1,2,3,15)            58.2879         calculate D2E/DX2 analytically  !
 ! D13   D(4,2,3,13)            52.5042         calculate D2E/DX2 analytically  !
 ! D14   D(4,2,3,14)           171.825          calculate D2E/DX2 analytically  !
 ! D15   D(4,2,3,15)           -68.0467         calculate D2E/DX2 analytically  !
 ! D16   D(8,2,3,13)           -62.7956         calculate D2E/DX2 analytically  !
 ! D17   D(8,2,3,14)            56.5252         calculate D2E/DX2 analytically  !
 ! D18   D(8,2,3,15)           176.6535         calculate D2E/DX2 analytically  !
 ! D19   D(1,2,4,5)            -21.2257         calculate D2E/DX2 analytically  !
 ! D20   D(1,2,4,6)            101.4601         calculate D2E/DX2 analytically  !
 ! D21   D(1,2,4,16)          -142.3644         calculate D2E/DX2 analytically  !
 ! D22   D(3,2,4,5)            104.4066         calculate D2E/DX2 analytically  !
 ! D23   D(3,2,4,6)           -132.9076         calculate D2E/DX2 analytically  !
 ! D24   D(3,2,4,16)           -16.732          calculate D2E/DX2 analytically  !
 ! D25   D(8,2,4,5)           -135.9798         calculate D2E/DX2 analytically  !
 ! D26   D(8,2,4,6)            -13.294          calculate D2E/DX2 analytically  !
 ! D27   D(8,2,4,16)           102.8816         calculate D2E/DX2 analytically  !
 ! D28   D(1,2,8,7)           -105.2495         calculate D2E/DX2 analytically  !
 ! D29   D(1,2,8,9)             74.0445         calculate D2E/DX2 analytically  !
 ! D30   D(3,2,8,7)            134.4021         calculate D2E/DX2 analytically  !
 ! D31   D(3,2,8,9)            -46.304          calculate D2E/DX2 analytically  !
 ! D32   D(4,2,8,7)             12.7788         calculate D2E/DX2 analytically  !
 ! D33   D(4,2,8,9)           -167.9272         calculate D2E/DX2 analytically  !
 ! D34   D(2,4,5,17)          -171.0116         calculate D2E/DX2 analytically  !
 ! D35   D(6,4,5,17)            71.6336         calculate D2E/DX2 analytically  !
 ! D36   D(16,4,5,17)          -50.0874         calculate D2E/DX2 analytically  !
 ! D37   D(2,4,6,7)             10.1322         calculate D2E/DX2 analytically  !
 ! D38   D(2,4,6,18)          -171.4651         calculate D2E/DX2 analytically  !
 ! D39   D(5,4,6,7)            131.569          calculate D2E/DX2 analytically  !
 ! D40   D(5,4,6,18)           -50.0283         calculate D2E/DX2 analytically  !
 ! D41   D(16,4,6,7)          -106.2996         calculate D2E/DX2 analytically  !
 ! D42   D(16,4,6,18)           72.1031         calculate D2E/DX2 analytically  !
 ! D43   D(4,6,7,8)             -1.9575         calculate D2E/DX2 analytically  !
 ! D44   D(4,6,7,19)           177.3828         calculate D2E/DX2 analytically  !
 ! D45   D(18,6,7,8)           179.7243         calculate D2E/DX2 analytically  !
 ! D46   D(18,6,7,19)           -0.9354         calculate D2E/DX2 analytically  !
 ! D47   D(6,7,8,2)             -7.2248         calculate D2E/DX2 analytically  !
 ! D48   D(6,7,8,9)            173.4992         calculate D2E/DX2 analytically  !
 ! D49   D(19,7,8,2)           173.3958         calculate D2E/DX2 analytically  !
 ! D50   D(19,7,8,9)            -5.8802         calculate D2E/DX2 analytically  !
 --------------------------------------------------------------------------------
 Trust Radius=3.00D-01 FncErr=1.00D-07 GrdErr=1.00D-07
 Number of steps in this run=      2 maximum allowed number of steps=      2.
 GradGradGradGradGradGradGradGradGradGradGradGradGradGradGradGradGradGrad

                          Input orientation:                          
 ---------------------------------------------------------------------
 Center     Atomic      Atomic             Coordinates (Angstroms)
 Number     Number       Type             X           Y           Z
 ---------------------------------------------------------------------
      1          6           0       -0.639631    1.922902   -1.374649
      2          6           0       -0.949098    1.240742   -0.026850
      3          6           0       -0.763474    2.230665    1.128398
      4          6           0       -2.343066    0.554296   -0.035986
      5          8           0       -3.184524    1.099650   -1.043396
      6          6           0       -2.036159   -0.915984   -0.240519
      7          6           0       -0.734787   -1.196465   -0.130872
      8          6           0        0.028119    0.050236    0.116328
      9          8           0        1.206351    0.145041    0.371668
     10          1           0       -0.765065    1.234488   -2.214422
     11          1           0       -1.309441    2.770281   -1.535799
     12          1           0        0.394840    2.277094   -1.367003
     13          1           0       -0.998640    1.770221    2.094007
     14          1           0        0.275856    2.567466    1.165409
     15          1           0       -1.411319    3.103610    0.999500
     16          1           0       -2.817092    0.684401    0.950512
     17          1           0       -4.071451    0.747803   -0.918475
     18          1           0       -2.827017   -1.636702   -0.426977
     19          1           0       -0.260909   -2.168130   -0.193637
 ---------------------------------------------------------------------
                    Distance matrix (angstroms):
                    1          2          3          4          5
     1  C    0.000000
     2  C    1.541971   0.000000
     3  C    2.524936   1.532645   0.000000
     4  C    2.562575   1.553847   2.580913   0.000000
     5  O    2.695172   2.459757   3.443453   1.421386   0.000000
     6  C    3.360924   2.424629   3.659926   1.515833   2.454818
     7  C    3.359537   2.448823   3.651275   2.379229   3.479376
     8  C    2.485111   1.546854   2.530845   2.428950   3.573137
     9  O    3.101299   2.450579   2.966931   3.596113   4.710994
    10  H    1.093099   2.195309   3.488097   2.774587   2.691331
    11  H    1.092093   2.178592   2.772582   2.868520   2.559180
    12  H    1.093453   2.162454   2.751523   3.497967   3.781923
    13  H    3.490526   2.186512   1.095313   2.796932   3.882145
    14  H    2.775874   2.163837   1.093167   3.514962   4.359763
    15  H    2.761550   2.176538   1.094692   2.905062   3.366532
    16  H    3.417835   2.180402   2.576805   1.102182   2.069566
    17  H    3.656001   3.284368   4.163085   1.950268   0.962310
    18  H    4.284100   3.459244   4.651229   2.277621   2.827615
    19  H    4.274898   3.481642   4.620579   3.431011   4.466319
                    6          7          8          9         10
     6  C    0.000000
     7  C    1.335763   0.000000
[...]
 03053501,0.00780170,-0.00355345,-0.00580953,-0.00446808,0.51191779,-0.
 01696440,-0.00731372,0.00271130,-0.02371533,-0.09491573,0.00264136,-0.
 02190889,-0.01043475,-0.00223951,-0.02279921,0.43849759,0.02755058,0.0
 1109720,0.00045799,0.00524158,-0.00098052,-0.07799880,-0.02182689,-0.0
 0820556,-0.00086456,-0.04240459,0.01051087,0.52576263,-0.00189864,0.00
 013797,-0.00073332,-0.02532916,0.01449090,-0.02287969,-0.00198517,0.00
 083158,0.00057578,-0.12601611,0.03321470,-0.07563629,0.60222512,-0.001
 21397,-0.00093699,0.00079065,-0.00471126,0.00977032,-0.00959379,-0.000
 38231,-0.00029270,-0.00020284,0.00428659,-0.09117986,0.05222605,0.1273
 4492,0.18102652,0.00233727,0.00077723,-0.00115251,-0.00602003,0.000116
 16,0.00000157,-0.00037315,0.00014540,-0.00028413,-0.03311056,0.0573447
 5,-0.14858413,0.03431427,-0.12914784,0.22043861,-0.00300299,0.00012819
 ,-0.00129277,0.00422656,-0.02537713,-0.00524104,-0.00476258,-0.0005773
 2,0.00111529,-0.08539375,0.00775541,0.00863629,-0.01144869,0.02908847,
 -0.01076981,0.85638900,0.00168868,-0.00069495,-0.00088819,-0.01536858,
 -0.02887023,-0.00776603,-0.00143871,-0.00131634,0.00135670,0.00722918,
 -0.17246343,-0.02339723,0.01267535,-0.01382584,0.00853136,0.04043525,0
 .52752532,0.00012957,0.00087188,-0.00007244,-0.00131134,0.00011245,-0.
 00044568,-0.00027469,-0.00063935,0.00009595,0.00607899,-0.02963357,-0.
 07478201,-0.01278455,0.03237459,-0.00113751,0.08553517,0.06144041,0.17
 614735,0.00015296,0.00022501,-0.00043260,0.00240572,0.01037123,0.00019
 414,-0.00075196,0.00100223,-0.00021270,-0.01372976,0.02122191,0.002527
 73,0.00236938,0.00062609,0.00081692,-0.50166172,0.08368483,-0.03976566
 ,0.76918723,0.00229940,-0.00165535,-0.00130688,-0.00687586,-0.03148670
 ,-0.00613516,0.00298459,-0.00279372,0.00224637,0.03068382,-0.01336282,
 -0.00088662,0.00276051,-0.00373448,0.00234734,0.09540257,-0.13252622,0
 .00030353,-0.17308433,0.65337096,0.00285051,-0.00271519,-0.00061187,-0
 .00281345,-0.00071789,0.01655824,-0.00197647,0.00106907,-0.00092635,0.
 00404346,0.00033175,0.00656537,-0.00010181,-0.00106712,0.00051548,-0.0
 3871121,-0.00023641,-0.05456350,0.05666359,0.04453119,0.12553518,0.007
 00912,0.00182689,-0.00927675,-0.08028182,0.00966120,0.00134097,0.00561
 012,0.00532757,0.00723936,-0.03897505,0.00872851,-0.00850657,-0.002606
 87,-0.00298247,0.00254255,-0.05423052,-0.01897420,-0.00978433,-0.08165
 181,-0.01463971,-0.00369934,0.95308371,0.00430250,-0.01737797,0.015197
 04,0.02963827,-0.12380095,-0.00061902,0.01037570,-0.02572487,-0.005757
 80,0.00552714,0.02106246,-0.00042631,-0.00598321,-0.00828539,-0.000542
 85,-0.02271064,0.01483663,-0.00197851,-0.02510206,-0.19410862,-0.01404
 584,0.05471474,0.45524440,-0.01949983,0.02602246,-0.00848521,0.0042314
 4,-0.00147283,-0.07557354,0.01831507,-0.02114374,0.00215793,0.00015641
 ,-0.00277238,-0.01355313,-0.00238271,0.00114917,0.00063500,-0.01125612
 ,-0.00066513,0.00354102,-0.00338061,-0.01300941,-0.08025072,0.15418944
 ,0.03092161,0.26258215,-0.00355391,-0.00244635,0.00506576,-0.04519150,
 0.01251958,-0.01203430,-0.00147945,-0.00445804,-0.00370356,0.00357805,
 0.00802548,0.00122270,-0.00328441,0.00036573,-0.00127300,0.01056739,-0
 .00945781,-0.00128203,-0.05450388,-0.02705317,-0.01595870,-0.70994810,
 -0.03971578,-0.13868148,0.80212429,0.00115767,-0.00012950,-0.00083260,
 0.02698176,0.01405067,0.00501953,0.00001194,0.00021293,0.00065506,0.00
 138199,-0.00911038,0.00098434,0.00246500,0.00307754,0.00001524,-0.0011
 5210,-0.00891482,-0.00149421,-0.04502287,0.01111033,-0.01044372,-0.049
 19351,-0.10624790,-0.01438032,0.05941274,0.08795099,0.00170193,-0.0015
 3118,0.00172567,-0.01261169,0.00177072,0.01088268,-0.00167191,-0.00002
 367,-0.00028043,0.00003315,0.00262298,0.00462610,-0.00022975,0.0001675
 6,-0.00044014,0.00177061,-0.00286181,0.00174639,-0.01827487,-0.0062497
 2,0.01839486,-0.13861679,-0.01275924,-0.09806251,0.16769765,0.01734423
 ,0.06421608,-0.05039280,-0.02080331,-0.02500389,-0.00076690,0.00493817
 ,0.00498978,0.00000303,-0.00076857,0.00123803,0.00073395,0.00040005,0.
 00072905,-0.00086773,-0.00020344,-0.00013257,0.00003466,-0.00012892,-0
 .00008752,0.00001186,-0.00001678,0.00017015,0.00021071,0.00003584,-0.0
 0054674,-0.00018635,0.00013708,0.00003382,0.05004670,-0.02004729,-0.15
 696381,-0.12999330,0.00304512,0.01029142,0.01135268,-0.00059625,-0.001
 35434,0.00256599,-0.00038868,0.00075853,-0.00083737,-0.00093953,-0.000
 26102,0.00068173,-0.00022186,0.00008636,0.00004534,0.00024508,0.000029
 07,0.00030804,0.00033613,0.00100926,0.00040326,-0.00014453,-0.00001553
 ,-0.00013562,0.02301506,0.16777776,-0.02331188,-0.12804856,-0.19999807
 ,-0.00421005,-0.01715523,-0.02025271,0.00153897,0.00424742,-0.00454354
 ,-0.00107123,-0.00062902,-0.00040479,0.00001603,0.00010120,0.00080055,
 0.00082610,-0.00002168,0.00037096,-0.00071096,0.00049537,0.00015866,0.
 00105473,-0.00230030,-0.00038283,-0.00077219,0.00061565,0.00011719,0.0
 2616259,0.13983171,0.22047951,-0.14923036,0.13058299,-0.02335987,0.004
 85831,-0.00670249,0.00279988,0.00001929,-0.00009985,-0.00039711,0.0005
 6395,-0.00021025,-0.00047747,-0.00152648,-0.00119069,0.00033028,0.0000
 7322,-0.00021755,-0.00005000,-0.00023693,-0.00018489,-0.00050892,-0.00
 152160,0.00042039,0.00101029,0.00141768,0.00011250,-0.00023804,0.00222
 478,-0.00432947,0.00057059,0.15966861,0.12914623,-0.20705952,0.0273668
 9,0.00816577,-0.01348008,0.00423076,-0.00034704,0.00073316,-0.00124082
 ,0.00219913,-0.00037737,0.00077204,-0.00031539,0.00085067,-0.00070385,
 0.00038726,-0.00032343,0.00002533,-0.00031763,-0.00047475,-0.00023809,
 -0.00243600,0.00145285,0.00227602,0.00068550,-0.00005070,-0.00024877,0
 .01265962,-0.01553940,0.00302994,-0.14211317,0.22329406,-0.02272872,0.
 02677070,-0.04985274,-0.01777473,0.02460507,-0.00841616,-0.00079340,0.
 00091528,0.00212562,-0.00122014,-0.00032386,0.00035880,0.00058271,-0.0
 0030532,0.00026521,-0.00020537,0.00020104,-0.00000155,-0.00036676,0.00
 100453,0.00082741,0.00376856,-0.00051403,-0.00499258,-0.00159957,0.000
 38947,0.00050927,0.01583943,-0.01892028,0.00379033,0.02405470,-0.03277
 653,0.05649439,-0.28594033,-0.08051586,-0.00410596,-0.00640380,-0.0032
 2963,0.00064069,0.00012480,0.00013481,-0.00073137,0.00057533,0.0007199
 5,0.00022532,-0.00002031,-0.00041530,0.00042598,-0.00007521,0.00000921
 ,-0.00003447,0.00003844,-0.00007329,-0.00005717,-0.00119945,0.00079083
 ,-0.00036221,0.00143163,0.00031371,0.00002257,-0.00201059,0.00010559,0
 .00001613,-0.01657199,-0.00724090,-0.00040867,0.30939019,-0.07902845,-
 0.07438890,-0.00286790,-0.01393477,-0.00769742,0.00130944,0.00047132,0
 .00030333,-0.00086150,0.00062077,-0.00053337,0.00288215,0.00030558,0.0
 0035655,-0.00011065,-0.00047838,0.00037996,0.00021159,0.00023492,0.000
 12664,0.00044994,-0.00390635,-0.00053402,-0.00079599,0.00173706,0.0009
 8647,-0.00061425,-0.01940080,-0.00673252,0.00060158,0.02380801,0.00964
 071,0.00002136,0.08951478,0.07797083,-0.00568265,-0.00361902,-0.046127
 20,0.02744011,0.01118707,-0.00231657,0.00086382,0.00021083,0.00154700,
 -0.00037446,0.00241071,-0.00558724,-0.00103768,-0.00048914,0.00060373,
 0.00098465,-0.00038261,-0.00009327,-0.00032852,-0.00020191,-0.00028763
 ,0.00240903,0.00004255,0.00121372,-0.00096632,-0.00112906,0.00008052,-
 0.02355206,-0.00658251,0.00047510,-0.00344136,-0.00198626,-0.00110375,
 0.00362845,-0.00004400,0.05146563,0.00011034,-0.00043577,-0.00051280,-
 0.00114561,0.00200136,-0.00384649,-0.05925720,-0.02434862,0.05006495,0
 .00046993,0.00070393,-0.00114943,-0.00004646,-0.00013978,0.00012968,0.
 00014175,-0.00012623,0.00001881,-0.00016457,0.00007972,0.00008212,0.00
 081725,-0.00013113,0.00090193,-0.00031036,0.00021054,-0.00064720,0.000
 58617,-0.00009044,-0.00017810,0.00005855,-0.00028872,0.00029407,0.0003
 6194,0.00014927,-0.00034404,0.05963849,-0.00061740,-0.00300221,-0.0028
 3713,0.00504266,0.00892164,-0.01946964,-0.02470911,-0.09705074,0.09976
 414,0.00058467,0.00109268,-0.00025196,-0.00003589,-0.00002345,0.000005
 98,0.00007553,0.00017200,0.00005472,0.00009066,0.00012774,0.00008110,-
 0.00022980,0.00126167,-0.00043042,0.00019016,0.00007289,0.00023717,0.0
 0012429,0.00082118,-0.00128567,-0.00025309,0.00007927,-0.00019466,0.00
 014000,-0.00014326,0.00000719,0.02790257,0.10309916,-0.00094773,-0.004
 93206,-0.00324419,0.00563910,0.00996950,-0.02022303,0.04924867,0.09791
 601,-0.24485420,0.00167403,0.00109471,-0.00044747,0.00004686,-0.000114
 20,0.00084942,-0.00018890,-0.00019005,0.00032899,0.00006600,-0.0003263
 5,-0.00011071,-0.00161845,0.00156295,-0.00033285,0.00095561,-0.0003151
 8,0.00061157,0.00045629,0.00080303,-0.00145832,-0.00005252,-0.00009427
 ,0.00044413,-0.00003074,-0.00004643,0.00033039,-0.05441608,-0.10583444
 ,0.26951846,0.00012345,0.00027558,0.00057282,-0.00331505,-0.00275566,-
 0.00056549,-0.28949948,-0.07816841,-0.00670816,0.00094034,-0.00008318,
 -0.00004842,-0.00013237,-0.00008308,-0.00023812,-0.00048155,0.00012030
 ,-0.00015301,0.00018121,0.00002825,0.00007274,-0.00158933,0.00049152,-
 0.00063634,0.00102629,0.00098160,0.00081837,0.00029725,0.00007560,0.00
 000173,-0.00006302,-0.00005218,-0.00002859,0.00050219,0.00014466,-0.00
 038974,-0.00527224,-0.00093618,-0.00032223,0.31332230,0.00005005,0.000
 44180,0.00107798,-0.02100122,-0.00847549,-0.00056082,-0.07536537,-0.07
 003826,-0.00154344,0.00091774,-0.00211381,-0.00328795,-0.00082943,-0.0
 0009097,-0.00035396,-0.00111771,-0.00002365,-0.00001006,0.00064058,0.0
 0020316,-0.00010083,-0.00405065,-0.00022237,-0.00011772,0.00194731,0.0
 0142039,0.00105645,0.00020538,-0.00010890,0.00011680,0.00014508,0.0000
 6228,-0.00005816,0.00021420,0.00050765,-0.00026341,-0.01346981,-0.0049
 4153,-0.00051320,0.08615723,0.07476338,-0.00115844,-0.00005977,0.00135
 082,-0.02441673,-0.00801000,-0.00192166,-0.00528820,-0.00089064,-0.047
 09769,0.00155555,-0.00289525,-0.00351198,-0.00044738,-0.00005809,0.000
 27299,-0.00137049,-0.00034383,0.00011477,0.00004819,0.00015993,0.00008
 962,-0.00105667,0.00030301,0.00065026,0.00079193,0.00078679,-0.0003208
 8,0.00030554,0.00008032,0.00026110,0.00001926,0.00001978,-0.00013019,0
 .00041737,0.00004570,-0.00061162,0.02743455,0.00822901,0.00119917,0.00
 771673,0.00448218,0.05075873,-0.00006149,0.00003877,0.00017759,0.00285
 675,-0.00540505,-0.00069004,-0.14038965,0.12394131,-0.01930731,0.00046
 094,-0.00006827,0.00036025,0.00028947,0.00014618,0.00018044,0.00014068
 ,0.00008276,0.00003795,0.00006340,-0.00023211,0.00019712,-0.00132673,-
 0.00018468,-0.00136822,0.00120013,0.00060949,0.00071279,0.00006811,-0.
 00024390,0.00009534,0.00021741,0.00012157,0.00040153,-0.00007507,0.000
 14301,-0.00004090,0.00436073,-0.00729728,0.00083990,-0.01639396,0.0251
 4937,-0.00433064,0.14856388,-0.00028330,0.00097062,0.00172520,0.013524
 15,-0.01946575,0.00065570,0.12425479,-0.21039961,0.02792593,0.00119723
 ,0.00023418,0.00031116,-0.00058438,0.00062570,-0.00006137,0.00030242,-
 0.00021360,0.00012741,0.00033353,-0.00111267,0.00031395,-0.00312673,0.
 00045880,-0.00351465,0.00061708,0.00025646,0.00054688,-0.00038920,0.00
 016118,0.00011811,0.00003380,0.00068180,-0.00082027,-0.00004082,0.0000
 7765,-0.00010154,0.00808495,-0.01073741,0.00137624,-0.00621176,0.00905
 409,-0.00143771,-0.13688841,0.22990345,0.00073614,-0.00055133,0.002106
 75,0.01653476,-0.02125018,0.00086482,-0.02062409,0.02881370,-0.0505979
 1,0.00054446,0.00038975,0.00078151,-0.00013220,0.00029703,-0.00003727,
 0.00034888,-0.00011691,-0.00006823,0.00061439,-0.00130487,0.00043683,-
 0.00282219,-0.00190422,-0.00428682,0.00079457,0.00024411,0.00085310,-0
 .00024385,0.00020674,0.00028041,-0.00027057,0.00031344,-0.00050192,0.0
 0007832,0.00003734,-0.00012288,-0.01763775,0.02186099,-0.00303975,0.00
 021679,0.00036605,-0.00119565,0.02241950,-0.02736510,0.05446650,-0.003
 54859,-0.00043807,-0.00102819,-0.01249747,0.00092005,0.02160170,0.0009
 4743,0.00052818,0.00210965,-0.09771421,0.01257403,0.09855659,0.0049312
 4,0.00306878,-0.02988276,-0.00088511,0.00154620,0.00490042,-0.00002724
 ,0.00040199,0.00030405,-0.00039695,-0.00042113,0.00186767,-0.00112077,
 0.00015346,-0.00116428,0.00000182,0.00018536,-0.00009688,0.00009895,-0
 .00017920,-0.00005751,-0.00021551,-0.00056014,0.00108282,-0.00030122,-
 0.00005771,-0.00119777,0.00030860,0.00029608,-0.00024867,0.00003229,-0
 .00043213,-0.00021137,0.10774052,-0.00258988,-0.00036726,-0.00025307,-
 0.00982023,0.00213444,0.01255675,-0.00032985,0.00068189,0.00087501,0.0
 1615805,-0.05215764,-0.03613118,-0.00209500,0.00323298,0.02015079,0.01
 823622,-0.00711398,-0.02739062,0.00045717,-0.00258755,-0.00047097,-0.0
 0087082,-0.00411068,-0.00162161,-0.00000376,0.00137637,0.00008512,0.00
 013685,-0.00000939,-0.00000179,0.00019405,0.00014894,-0.00007716,-0.00
 018116,-0.00040478,0.00072934,-0.00014224,0.00015255,-0.00018035,0.000
 16975,-0.00004149,-0.00003694,0.00010715,-0.00013300,0.00023035,-0.018
 17314,0.05899538,-0.00013399,-0.00033015,0.00040470,0.00094094,-0.0010
 8595,-0.00038846,-0.00181301,-0.00105165,0.00041526,0.09537143,-0.0283
 1041,-0.22487371,-0.00446497,0.00588924,-0.03498793,0.00613795,-0.0039
 8997,-0.00317341,-0.00144480,-0.00136711,-0.00006304,0.00081279,0.0011
 8519,0.00019072,-0.00010534,-0.00027533,-0.00005929,-0.00019110,0.0000
 7239,0.00008155,-0.00010476,-0.00016440,-0.00005254,0.00010564,0.00002
 046,0.00009351,-0.00010061,0.00006977,0.00068827,-0.00024603,-0.000200
 22,0.00026138,0.00015637,0.00029119,0.00000738,-0.09598735,0.02876026,
 0.26078560,0.00042533,0.00035003,-0.00052806,-0.00066956,0.00280512,-0
 .00289751,-0.00046100,0.00014857,0.00001002,-0.02437178,-0.01190261,0.
 00626637,-0.43486500,-0.15426121,0.04049260,0.00027833,0.00092876,0.00
 135869,0.00085347,0.00016445,-0.00007613,-0.00092311,-0.00264236,-0.00
 061765,0.00000157,0.00093574,0.00017887,0.00006781,-0.00003289,-0.0000
 1358,0.00001070,0.00009065,-0.00000438,0.00005251,0.00006627,-0.000082
 45,-0.00000904,-0.00003163,-0.00009788,0.00004405,-0.00007824,-0.00013
 126,0.00001554,-0.00003179,-0.00000724,0.00262614,-0.00082912,0.000679
 96,0.45691761,-0.00029984,-0.00049604,-0.00026082,-0.00023221,-0.00072
 526,0.00114728,0.00013671,0.00013502,0.00016022,0.01976295,0.00260442,
 0.00128848,-0.18450956,-0.08420976,0.03970162,0.00208259,0.00161123,0.
 00046019,-0.00063432,-0.00102750,-0.00021109,0.00111233,0.00080234,0.0
 0038582,-0.00051408,-0.00034060,-0.00028525,0.00006719,0.00000696,0.00
 001111,0.00005120,0.00049345,-0.00016107,-0.00013512,0.00019883,-0.000
 02277,-0.00004314,0.00003309,-0.00009879,0.00003834,-0.00001488,0.0000
 0837,0.00003009,-0.00009448,0.00004412,-0.00012698,0.00035523,0.000964
 21,0.16351466,0.08166353,0.00088589,0.00042453,-0.00039293,-0.00251737
 ,0.00357510,-0.00362786,-0.00035873,0.00002932,0.00029840,-0.03551061,
 -0.01119387,-0.00209394,0.08266077,0.05176502,-0.03765427,0.00040954,0
 .00083902,0.00042331,0.00025042,-0.00004889,-0.00019073,-0.00076160,-0
 .00145387,-0.00009342,-0.00044847,0.00053395,-0.00005256,-0.00017401,0
 .00018918,0.00032969,0.00005206,-0.00040589,0.00004146,0.00019483,-0.0
 0000208,0.00015294,-0.00005446,0.00003674,-0.00007087,-0.00001782,-0.0
 0019725,-0.00013269,0.00004289,-0.00012611,-0.00002031,-0.00028165,-0.
 00090585,0.00072178,-0.04437514,-0.04327727,0.04198901,0.00041032,0.00
 005498,-0.00004761,0.00013229,0.00172802,-0.00008184,0.00035210,0.0001
 3850,0.00011771,0.00707367,0.00671781,0.00038296,0.00123071,-0.0013445
 8,0.00099406,-0.20450091,-0.13196860,-0.03551322,-0.01287346,-0.024536
 69,-0.00534127,-0.00383997,0.00516879,-0.00159434,-0.00180718,-0.00258
 670,-0.00023179,-0.00002165,0.00001191,0.00000589,-0.00000273,-0.00004
 789,0.00007506,0.00001206,0.00008909,-0.00012003,-0.00002099,0.0000000
 5,0.00000177,-0.00000519,0.00012785,0.00010067,0.00001234,-0.00007848,
 -0.00005890,-0.00006633,-0.00088863,0.00002433,-0.00022353,-0.00032244
 ,-0.00000874,0.21315085,-0.00041378,-0.00001871,-0.00034703,0.00278400
 ,-0.00342243,-0.00161724,-0.00162179,-0.00021511,0.00047471,-0.0229298
 1,-0.00984927,-0.00407911,0.00098914,0.00318740,0.00090135,-0.13813950
 ,-0.18040207,-0.03433590,0.00969026,0.01017847,0.00090206,0.00140839,-
 0.00276516,-0.00215100,0.00055901,0.00134443,0.00073504,0.00000131,0.0
 0001485,0.00013528,0.00000879,-0.00002376,-0.00001304,-0.00007864,-0.0
 0009429,0.00022729,0.00006114,0.00004069,0.00000284,-0.00012172,-0.000
 41167,-0.00040515,0.00004324,0.00003073,0.00004954,0.00058139,0.000070
 85,-0.00042618,0.00072428,-0.00096884,0.00021535,0.14726674,0.18298881
 ,-0.00123901,-0.00007160,-0.00037846,0.00212812,0.00001986,0.00138390,
 0.00047605,0.00007309,-0.00004181,-0.00609213,-0.00239911,0.00128873,0
 .00128882,-0.00090378,0.00048166,-0.03623711,-0.03372145,-0.05142455,-
 0.00079052,-0.00213154,0.00877004,-0.00165466,-0.00247461,0.01316481,0
 .00070006,0.00092539,-0.00308209,0.00004166,-0.00002776,-0.00006074,0.
 00007069,0.00002440,-0.00004817,-0.00000684,-0.00029620,0.00032180,0.0
 0001820,-0.00003534,-0.00008386,-0.00007767,0.00012471,0.00000470,-0.0
 0000675,0.00001519,-0.00001356,0.00025510,0.00095595,0.00004376,-0.000
 03500,0.00016046,0.00030549,0.04054282,0.03893836,0.03432279,0.0003750
 1,-0.00010195,-0.00011616,-0.00206070,-0.00311655,-0.00113545,0.000771
 83,-0.00052558,0.00032403,-0.00373787,-0.00240963,-0.00164975,-0.00101
 852,0.00200134,-0.00076405,-0.00540854,0.02928008,0.00298121,-0.109662
 35,0.11189154,0.00486072,0.01176041,-0.01457472,-0.00034598,0.00003888
 ,0.00308996,0.00071655,-0.00004084,0.00001499,0.00007676,-0.00005835,-
 0.00011760,0.00017177,0.00002318,0.00002415,-0.00004867,-0.00001747,0.
 00001750,-0.00005593,0.00000648,0.00006158,0.00005870,-0.00003478,-0.0
 0028096,-0.00027965,0.00008641,0.00046459,0.00036255,0.00022997,0.0000
 2164,0.00001221,0.00098760,-0.00081245,0.00061818,0.10775965,0.0004306
 2,-0.00029138,-0.00034492,-0.00190221,-0.00227066,-0.00131669,0.000824
 81,-0.00067922,0.00055553,-0.00119443,-0.00043770,-0.00158845,0.000076
 76,0.00071280,0.00020158,-0.00411928,0.00207706,-0.00054522,0.11533772
 ,-0.29027599,-0.01773994,0.01729449,-0.01295047,0.00091685,-0.00226615
 ,0.00294996,0.00014338,-0.00000983,0.00002834,0.00013807,-0.00005536,-
 0.00010817,0.00025693,-0.00003234,-0.00002007,0.00000724,0.00002241,0.
 00002404,-0.00007999,-0.00007066,0.00003028,0.00002230,-0.00009323,-0.
 00029814,-0.00036055,0.00013300,-0.00022286,-0.00005133,0.00008132,-0.
 00002674,0.00000289,0.00047029,0.00031508,0.00082396,-0.12492794,0.301
 44384,0.00072988,-0.00064446,-0.00001008,-0.00221627,-0.00059833,0.002
 64237,-0.00023685,0.00049492,0.00005782,-0.00205475,0.00033881,0.01286
 063,0.00134511,-0.00287839,-0.00058633,-0.00049167,0.00221278,0.002993
 41,0.00452662,-0.01811981,-0.04084715,0.00443990,-0.00443574,0.0018780
 0,-0.00040332,0.00135666,-0.00146553,-0.00003458,-0.00004358,-0.000044
 04,-0.00000713,-0.00019973,0.00024296,-0.00001784,0.00005945,-0.000034
 16,-0.00005734,-0.00000757,-0.00010514,0.00003245,-0.00001715,-0.00004
 118,0.00012218,0.00001979,0.00008702,-0.00052156,0.00272597,-0.0000955
 4,-0.00012024,-0.00001482,0.00006748,0.00075247,0.00079283,-0.00495444
 ,-0.00578705,0.01895836,0.02735389\\0.00000313,0.00001081,-0.00001597,
 0.00000953,-0.00003029,0.00001111,-0.00000333,0.00001411,0.00000414,-0
 .00000184,0.00001019,-0.00000716,0.00000467,-0.00001038,0.00000469,0.0
 0000737,-0.00001276,0.00000176,-0.00000615,-0.00000722,0.00000004,-0.0
 0001866,0.00003098,-0.00000154,0.00001320,-0.00000204,0.00000433,0.000
 00050,-0.00000345,0.00000190,-0.00000369,-0.00000354,-0.00000193,-0.00
 000256,-0.00000077,0.00000120,-0.00000418,0.00000352,-0.00000231,-0.00
 000240,0.00000118,-0.00000462,-0.00000380,-0.00000086,-0.00000461,-0.0
 0000384,-0.00000178,0.00000012,-0.00000381,-0.00000514,-0.00000246,0.0
 0000325,0.00000095,0.00000338,0.00001263,0.00000649,0.00000793\\\@


  THE LARGE PRINT GIVETH,
  AND THE SMALL PRINT TAKETH AWAY.

                     -- TOM WAITS
 Job cpu time:       0 days  0 hours 55 minutes 13.5 seconds.
 File lengths (MBytes):  RWF=    152 Int=      0 D2E=      0 Chk=      8 Scr=      1
 Normal termination of Gaussian 09 at Tue Jan 28 00:58:48 2020.
