 Entering Gaussian System, Link 0=/home/puck/opt/gaussian_09/g09
 Input=dsC7O2H10nsd_1656.com
 Output=dsC7O2H10nsd_1656.log
 Initial command:
 /home/puck/opt/gaussian_09/l1.exe "/scratch/puck/g09_f6da379d-11d5-45ea-975f-df57d13a7c66/Gau-109760.inp" -scrdir="/scratch/puck/g09_f6da379d-11d5-45ea-975f-df57d13a7c66/"
 Entering Link 1 = /home/puck/opt/gaussian_09/l1.exe PID=    109762.
  
 Copyright (c) 1988,1990,1992,1993,1995,1998,2003,2009,2013,
            Gaussian, Inc.  All Rights Reserved.
  
 This is part of the Gaussian(R) 09 program.  It is based on
 the Gaussian(R) 03 system (copyright 2003, Gaussian, Inc.),
 the Gaussian(R) 98 system (copyright 1998, Gaussian, Inc.),
 the Gaussian(R) 94 system (copyright 1995, Gaussian, Inc.),
 the Gaussian 92(TM) system (copyright 1992, Gaussian, Inc.),
 the Gaussian 90(TM) system (copyright 1990, Gaussian, Inc.),
 the Gaussian 88(TM) system (copyright 1988, Gaussian, Inc.),
 the Gaussian 86(TM) system (copyright 1986, Carnegie Mellon
 University), and the Gaussian 82(TM) system (copyright 1983,
 Carnegie Mellon University). Gaussian is a federally registered
 trademark of Gaussian, Inc.
  
 This software contains proprietary and confidential information,
 including trade secrets, belonging to Gaussian, Inc.
  
 This software is provided under written license and may be
 used, copied, transmitted, or stored only in accord with that
 written license.
  
 The following legend is applicable only to US Government
 contracts under FAR:
  
                    RESTRICTED RIGHTS LEGEND
  
 Use, reproduction and disclosure by the US Government is
 subject to restrictions as set forth in subparagraphs (a)
 and (c) of the Commercial Computer Software - Restricted
 Rights clause in FAR 52.227-19.
  
 Gaussian, Inc.
 340 Quinnipiac St., Bldg. 40, Wallingford CT 06492
  
  
 ---------------------------------------------------------------
 Warning -- This program may not be used in any manner that
 competes with the business of Gaussian, Inc. or will provide
 assistance to any competitor of Gaussian, Inc.  The licensee
 of this program is prohibited from giving any competitor of
 Gaussian, Inc. access to this program.  By using this program,
 the user acknowledges that Gaussian, Inc. is engaged in the
 business of creating and licensing software in the field of
 computational chemistry and represents and warrants to the
 licensee that it is not a competitor of Gaussian, Inc. and that
 it will not use this program in any manner prohibited above.
 ---------------------------------------------------------------
  

 Cite this work as:
 Gaussian 09, Revision D.01,
 M. J. Frisch, G. W. Trucks, H. B. Schlegel, G. E. Scuseria, 
 M. A. Robb, J. R. Cheeseman, G. Scalmani, V. Barone, B. Mennucci, 
 G. A. Petersson, H. Nakatsuji, M. Caricato, X. Li, H. P. Hratchian, 
 A. F. Izmaylov, J. Bloino, G. Zheng, J. L. Sonnenberg, M. Hada, 
 M. Ehara, K. Toyota, R. Fukuda, J. Hasegawa, M. Ishida, T. Nakajima, 
 Y. Honda, O. Kitao, H. Nakai, T. Vreven, J. A. Montgomery, Jr., 
 J. E. Peralta, F. Ogliaro, M. Bearpark, J. J. Heyd, E. Brothers, 
 K. N. Kudin, V. N. Staroverov, T. Keith, R. Kobayashi, J. Normand, 
 K. Raghavachari, A. Rendell, J. C. Burant, S. S. Iyengar, J. Tomasi, 
 M. Cossi, N. Rega, J. M. Millam, M. Klene, J. E. Knox, J. B. Cross, 
 V. Bakken, C. Adamo, J. Jaramillo, R. Gomperts, R. E. Stratmann, 
 O. Yazyev, A. J. Austin, R. Cammi, C. Pomelli, J. W. Ochterski, 
 R. L. Martin, K. Morokuma, V. G. Zakrzewski, G. A. Voth, 
 P. Salvador, J. J. Dannenberg, S. Dapprich, A. D. Daniels, 
 O. Farkas, J. B. Foresman, J. V. Ortiz, J. Cioslowski, 
 and D. J. Fox, Gaussian, Inc., Wallingford CT, 2013.
 
 ******************************************
 Gaussian 09:  ES64L-G09RevD.01 24-Apr-2013
                27-Jan-2020 
 ******************************************
 -----------------------------
 # b3lyp 6-31G(2df,p) opt Freq
 -----------------------------
 1/14=-1,18=20,19=15,26=3,38=1/1,3;
 2/9=110,12=2,17=6,18=5,40=1/2;
 3/5=1,6=6,7=104,11=2,16=1,25=1,30=1,71=1,74=-5/1,2,3;
 4//1;
 5/5=2,38=5/2;
 6/7=2,8=2,9=2,10=2,28=1/1;
 7//1,2,3,16;
 1/14=-1,18=20,19=15,26=3/3(2);
 2/9=110/2;
 99//99;
 2/9=110/2;
 3/5=1,6=6,7=104,11=2,16=1,25=1,30=1,71=1,74=-5/1,2,3;
 4/5=5,16=3,69=1/1;
 5/5=2,38=5/2;
 7//1,2,3,16;
 1/14=-1,18=20,19=15,26=3/3(-5);
 2/9=110/2;
 6/7=2,8=2,9=2,10=2,19=2,28=1/1;
 99/9=1/99;
 -----
 titel
 -----
 Symbolic Z-matrix:
 Charge =  0 Multiplicity = 1
 C                     0.91905  -1.96626   1.44658 
 C                     2.3513   -1.96621   0.9494 
 C                     2.66619  -2.42736  -0.4611 
 C                     3.01788  -3.33313   0.67573 
 C                     4.43579  -3.6216    1.03128 
 C                     4.94673  -4.99905   1.02461 
 O                     4.63848  -4.34403   2.2544 
 C                     3.21627  -0.88592   1.49995 
 O                     4.30145  -0.56905   1.06972 
 H                     0.87653  -2.05138   2.53803 
 H                     0.39722  -1.04634   1.15984 
 H                     0.35964  -2.80675   1.02682 
 H                     1.82926  -2.6912   -1.09815 
 H                     3.48126  -1.90503  -0.95104 
 H                     2.35044  -4.17066   0.86142 
 H                     5.13898  -2.80868   0.86799 
 H                     4.28196  -5.81815   0.75079 
 H                     6.00444  -5.18111   0.8386 
 H                     2.78248  -0.35961   2.37984 
 

 GradGradGradGradGradGradGradGradGradGradGradGradGradGradGradGradGradGrad
 Berny optimization.
 Initialization pass.
                           ----------------------------
                           !    Initial Parameters    !
                           ! (Angstroms and Degrees)  !
 --------------------------                            --------------------------
 ! Name  Definition              Value          Derivative Info.                !
 --------------------------------------------------------------------------------
 ! R1    R(1,2)                  1.5161         estimate D2E/DX2                !
 ! R2    R(1,10)                 1.0956         estimate D2E/DX2                !
 ! R3    R(1,11)                 1.0958         estimate D2E/DX2                !
 ! R4    R(1,12)                 1.0934         estimate D2E/DX2                !
 ! R5    R(2,3)                  1.517          estimate D2E/DX2                !
 ! R6    R(2,4)                  1.5452         estimate D2E/DX2                !
 ! R7    R(2,8)                  1.4894         estimate D2E/DX2                !
 ! R8    R(3,4)                  1.4955         estimate D2E/DX2                !
 ! R9    R(3,13)                 1.0844         estimate D2E/DX2                !
 ! R10   R(3,14)                 1.085          estimate D2E/DX2                !
 ! R11   R(4,5)                  1.49           estimate D2E/DX2                !
 ! R12   R(4,15)                 1.0869         estimate D2E/DX2                !
 ! R13   R(5,6)                  1.4692         estimate D2E/DX2                !
 ! R14   R(5,7)                  1.4349         estimate D2E/DX2                !
 ! R15   R(5,16)                 1.0872         estimate D2E/DX2                !
 ! R16   R(6,7)                  1.427          estimate D2E/DX2                !
 ! R17   R(6,17)                 1.0899         estimate D2E/DX2                !
 ! R18   R(6,18)                 1.0893         estimate D2E/DX2                !
 ! R19   R(8,9)                  1.2096         estimate D2E/DX2                !
 ! R20   R(8,19)                 1.1133         estimate D2E/DX2                !
 ! A1    A(2,1,10)             111.3067         estimate D2E/DX2                !
 ! A2    A(2,1,11)             111.3482         estimate D2E/DX2                !
 ! A3    A(2,1,12)             110.9442         estimate D2E/DX2                !
 ! A4    A(10,1,11)            107.9041         estimate D2E/DX2                !
 ! A5    A(10,1,12)            107.6299         estimate D2E/DX2                !
 ! A6    A(11,1,12)            107.5306         estimate D2E/DX2                !
 ! A7    A(1,2,3)              120.0657         estimate D2E/DX2                !
 ! A8    A(1,2,4)              117.7473         estimate D2E/DX2                !
 ! A9    A(1,2,8)              115.3055         estimate D2E/DX2                !
 ! A10   A(3,2,8)              116.3357         estimate D2E/DX2                !
 ! A11   A(4,2,8)              117.166          estimate D2E/DX2                !
 ! A12   A(2,3,13)             117.3858         estimate D2E/DX2                !
 ! A13   A(2,3,14)             115.4319         estimate D2E/DX2                !
 ! A14   A(4,3,13)             118.7323         estimate D2E/DX2                !
 ! A15   A(4,3,14)             117.2694         estimate D2E/DX2                !
 ! A16   A(13,3,14)            115.5727         estimate D2E/DX2                !
 ! A17   A(2,4,5)              122.6503         estimate D2E/DX2                !
 ! A18   A(2,4,15)             112.7361         estimate D2E/DX2                !
 ! A19   A(3,4,5)              121.4961         estimate D2E/DX2                !
 ! A20   A(3,4,15)             116.8822         estimate D2E/DX2                !
 ! A21   A(5,4,15)             113.2289         estimate D2E/DX2                !
 ! A22   A(4,5,6)              120.7556         estimate D2E/DX2                !
 ! A23   A(4,5,7)              115.8038         estimate D2E/DX2                !
 ! A24   A(4,5,16)             115.7786         estimate D2E/DX2                !
 ! A25   A(6,5,16)             118.3873         estimate D2E/DX2                !
 ! A26   A(7,5,16)             114.4011         estimate D2E/DX2                !
 ! A27   A(5,6,17)             119.5808         estimate D2E/DX2                !
 ! A28   A(5,6,18)             119.6817         estimate D2E/DX2                !
 ! A29   A(7,6,17)             115.4499         estimate D2E/DX2                !
 ! A30   A(7,6,18)             115.6984         estimate D2E/DX2                !
 ! A31   A(17,6,18)            115.0725         estimate D2E/DX2                !
 ! A32   A(2,8,9)              125.419          estimate D2E/DX2                !
 ! A33   A(2,8,19)             114.1271         estimate D2E/DX2                !
 ! A34   A(9,8,19)             120.4538         estimate D2E/DX2                !
 ! D1    D(10,1,2,3)           154.6523         estimate D2E/DX2                !
 ! D2    D(10,1,2,4)            86.8909         estimate D2E/DX2                !
 ! D3    D(10,1,2,8)           -58.1323         estimate D2E/DX2                !
 ! D4    D(11,1,2,3)           -84.9015         estimate D2E/DX2                !
 ! D5    D(11,1,2,4)          -152.6629         estimate D2E/DX2                !
 ! D6    D(11,1,2,8)            62.3139         estimate D2E/DX2                !
 ! D7    D(12,1,2,3)            34.8265         estimate D2E/DX2                !
 ! D8    D(12,1,2,4)           -32.9349         estimate D2E/DX2                !
 ! D9    D(12,1,2,8)          -177.9581         estimate D2E/DX2                !
 ! D10   D(1,2,3,13)             3.6205         estimate D2E/DX2                !
 ! D11   D(1,2,3,14)           145.3076         estimate D2E/DX2                !
 ! D12   D(8,2,3,13)          -143.2719         estimate D2E/DX2                !
 ! D13   D(8,2,3,14)            -1.5848         estimate D2E/DX2                !
 ! D14   D(1,2,4,5)           -139.8479         estimate D2E/DX2                !
 ! D15   D(1,2,4,15)             1.0847         estimate D2E/DX2                !
 ! D16   D(8,2,4,5)              4.5259         estimate D2E/DX2                !
 ! D17   D(8,2,4,15)           145.4585         estimate D2E/DX2                !
 ! D18   D(1,2,8,9)           -166.5257         estimate D2E/DX2                !
 ! D19   D(1,2,8,19)            13.5807         estimate D2E/DX2                !
 ! D20   D(3,2,8,9)            -18.0525         estimate D2E/DX2                !
 ! D21   D(3,2,8,19)           162.0539         estimate D2E/DX2                !
 ! D22   D(4,2,8,9)             48.2407         estimate D2E/DX2                !
 ! D23   D(4,2,8,19)          -131.6529         estimate D2E/DX2                !
 ! D24   D(13,3,4,5)           140.4349         estimate D2E/DX2                !
 ! D25   D(13,3,4,15)           -5.5813         estimate D2E/DX2                !
 ! D26   D(14,3,4,5)            -6.327          estimate D2E/DX2                !
 ! D27   D(14,3,4,15)         -152.3433         estimate D2E/DX2                !
 ! D28   D(2,4,5,6)            166.7579         estimate D2E/DX2                !
 ! D29   D(2,4,5,7)             99.1465         estimate D2E/DX2                !
 ! D30   D(2,4,5,16)           -38.8498         estimate D2E/DX2                !
 ! D31   D(3,4,5,6)           -121.1481         estimate D2E/DX2                !
 ! D32   D(3,4,5,7)            171.2405         estimate D2E/DX2                !
 ! D33   D(3,4,5,16)            33.2442         estimate D2E/DX2                !
 ! D34   D(15,4,5,6)            25.9954         estimate D2E/DX2                !
 ! D35   D(15,4,5,7)           -41.6159         estimate D2E/DX2                !
 ! D36   D(15,4,5,16)         -179.6122         estimate D2E/DX2                !
 ! D37   D(4,5,6,17)             0.354          estimate D2E/DX2                !
 ! D38   D(4,5,6,18)           152.5322         estimate D2E/DX2                !
 ! D39   D(16,5,6,17)         -153.3896         estimate D2E/DX2                !
 ! D40   D(16,5,6,18)           -1.2114         estimate D2E/DX2                !
 --------------------------------------------------------------------------------
 Trust Radius=3.00D-01 FncErr=1.00D-07 GrdErr=1.00D-06
 Number of steps in this run=    104 maximum allowed number of steps=    114.
 GradGradGradGradGradGradGradGradGradGradGradGradGradGradGradGradGradGrad

                          Input orientation:                          
 ---------------------------------------------------------------------
 Center     Atomic      Atomic             Coordinates (Angstroms)
 Number     Number       Type             X           Y           Z
 ---------------------------------------------------------------------
      1          6           0        0.919047   -1.966260    1.446580
      2          6           0        2.351298   -1.966206    0.949401
      3          6           0        2.666189   -2.427361   -0.461104
      4          6           0        3.017875   -3.333133    0.675732
      5          6           0        4.435792   -3.621600    1.031285
      6          6           0        4.946731   -4.999051    1.024606
      7          8           0        4.638476   -4.344026    2.254396
      8          6           0        3.216268   -0.885918    1.499946
      9          8           0        4.301454   -0.569053    1.069721
     10          1           0        0.876530   -2.051379    2.538034
     11          1           0        0.397217   -1.046343    1.159840
     12          1           0        0.359636   -2.806755    1.026824
     13          1           0        1.829260   -2.691199   -1.098146
     14          1           0        3.481265   -1.905029   -0.951036
     15          1           0        2.350440   -4.170656    0.861420
     16          1           0        5.138976   -2.808677    0.867991
     17          1           0        4.281956   -5.818154    0.750790
     18          1           0        6.004438   -5.181112    0.838595
     19          1           0        2.782481   -0.359609    2.379837
 ---------------------------------------------------------------------
                    Distance matrix (angstroms):
                    1          2          3          4          5
     1  C    0.000000
     2  C    1.516090   0.000000
     3  C    2.627618   1.517019   0.000000
     4  C    2.620616   1.545221   1.495493   0.000000
     5  C    3.908979   2.663110   2.604789   1.490007   0.000000
     6  C    5.059459   3.992503   3.744569   2.572447   1.469174
     7  O    4.487816   3.547989   3.864901   2.477989   1.434915
     8  C    2.539136   1.489394   2.554281   2.589894   3.031640
     9  O    3.678979   2.402004   2.910469   3.072936   3.055743
    10  H    1.095593   2.169320   3.512702   3.113908   4.171838
    11  H    1.095798   2.169991   3.111736   3.511640   4.791509
    12  H    1.093420   2.163153   2.770930   2.732503   4.156806
    13  H    2.798152   2.233962   1.084382   2.229693   3.492010
    14  H    3.509597   2.211838   1.084994   2.213726   2.790579
    15  H    2.692705   2.206205   2.210847   1.086920   2.163102
    16  H    4.341915   2.913337   2.833120   2.193419   1.087188
    17  H    5.160462   4.313281   3.946754   2.789062   2.219727
    18  H    6.046993   4.867580   4.518437   3.515837   2.220328
    19  H    2.631479   2.193905   3.515689   3.435292   3.897771
                    6          7          8          9         10
     6  C    0.000000
     7  O    1.427046   0.000000
     8  C    4.487573   3.814496   0.000000
     9  O    4.476974   3.970826   1.209597   0.000000
    10  H    5.248407   4.414626   2.812526   4.010404   0.000000
    11  H    6.028289   5.482795   2.844021   3.934335   1.771795
    12  H    5.084054   4.709417   3.474738   4.532888   1.766785
    13  H    4.421639   4.675796   3.454405   3.913425   3.812987
    14  H    3.952686   4.190780   2.667606   2.557538   4.356567
    15  H    2.730128   2.684315   3.456426   4.101389   3.078113
    16  H    2.204365   2.128360   2.791625   2.399594   4.640149
    17  H    1.089876   2.135647   5.101360   5.258817   5.383286
    18  H    1.089261   2.138003   5.163329   4.921855   6.243298
    19  H    5.295758   4.397275   1.113275   2.016817   2.553382
                   11         12         13         14         15
    11  H    0.000000
    12  H    1.765829   0.000000
    13  H    3.139235   2.586241   0.000000
    14  H    3.834643   3.803893   1.835436   0.000000
    15  H    3.696683   2.418860   2.510044   3.113973   0.000000
    16  H    5.067077   4.781978   3.851457   2.621725   3.103379
    17  H    6.166741   4.952708   4.383165   4.341643   2.541111
    18  H    6.974270   6.126728   5.232853   4.505763   3.791206
    19  H    2.765769   3.699911   4.294335   3.737825   4.125085
                   16         17         18         19
    16  H    0.000000
    17  H    3.131321   0.000000
    18  H    2.525537   1.838607   0.000000
    19  H    3.719768   5.890495   6.000277   0.000000
 Stoichiometry    C7H10O2
 Framework group  C1[X(C7H10O2)]
 Deg. of freedom    51
 Full point group                 C1      NOp   1
 Largest Abelian subgroup         C1      NOp   1
 Largest concise Abelian subgroup C1      NOp   1
                         Standard orientation:                         
 ---------------------------------------------------------------------
 Center     Atomic      Atomic             Coordinates (Angstroms)
 Number     Number       Type             X           Y           Z
 ---------------------------------------------------------------------
      1          6           0        2.080431   -1.336913   -0.718524
      2          6           0        1.207804   -0.314658   -0.017063
      3          6           0        0.751087   -0.556102    1.409282
      4          6           0       -0.248819   -0.714566    0.308564
      5          6           0       -1.394045    0.226309    0.155818
      6          6           0       -2.778765   -0.263119    0.194332
      7          8           0       -2.164272    0.082783   -1.046318
      8          6           0        1.454105    1.103183   -0.400938
      9          8           0        1.040817    2.072278    0.193345
     10          1           0        1.965826   -1.278564   -1.806543
     11          1           0        3.139867   -1.185913   -0.482799
     12          1           0        1.816270   -2.352613   -0.411703
     13          1           0        1.122238   -1.444447    1.908253
     14          1           0        0.671399    0.330627    2.029423
     15          1           0       -0.484387   -1.730110    0.001037
     16          1           0       -1.201638    1.256328    0.445675
     17          1           0       -2.969852   -1.325892    0.342086
     18          1           0       -3.576134    0.399940    0.527568
     19          1           0        2.073266    1.225352   -1.318050
 ---------------------------------------------------------------------
 Rotational constants (GHZ):      2.5111839      1.1940459      1.0243339
 Standard basis: 6-31G(2df,p) (6D, 7F)
 There are   329 symmetry adapted cartesian basis functions of A   symmetry.
 There are   302 symmetry adapted basis functions of A   symmetry.
   302 basis functions,   466 primitive gaussians,   329 cartesian basis functions
    34 alpha electrons       34 beta electrons
       nuclear repulsion energy       449.5768522432 Hartrees.
 NAtoms=   19 NActive=   19 NUniq=   19 SFac= 1.00D+00 NAtFMM=   60 NAOKFM=F Big=F
 Integral buffers will be    131072 words long.
 Raffenetti 2 integral format.
 Two-electron integral symmetry is turned on.
 One-electron integrals computed using PRISM.
 NBasis=   302 RedAO= T EigKep=  4.79D-04  NBF=   302
 NBsUse=   302 1.00D-06 EigRej= -1.00D+00 NBFU=   302
 ExpMin= 1.61D-01 ExpMax= 5.48D+03 ExpMxC= 8.25D+02 IAcc=1 IRadAn=         1 AccDes= 0.00D+00
 Harris functional with IExCor=  402 and IRadAn=       1 diagonalized for initial guess.
 HarFok:  IExCor=  402 AccDes= 0.00D+00 IRadAn=         1 IDoV= 1 UseB2=F ITyADJ=14
 ICtDFT=  3500011 ScaDFX=  1.000000  1.000000  1.000000  1.000000
 FoFCou: FMM=F IPFlag=           0 FMFlag=      100000 FMFlg1=           0
         NFxFlg=           0 DoJE=T BraDBF=F KetDBF=T FulRan=T
         wScrn=  0.000000 ICntrl=     500 IOpCl=  0 I1Cent=   200000004 NGrid=           0
         NMat0=    1 NMatS0=      1 NMatT0=    0 NMatD0=    1 NMtDS0=    0 NMtDT0=    0
 Petite list used in FoFCou.
 Requested convergence on RMS density matrix=1.00D-08 within 128 cycles.
 Requested convergence on MAX density matrix=1.00D-06.
 Requested convergence on             energy=1.00D-06.
 No special actions if energy rises.
 Integral accuracy reduced to 1.0D-05 until final iterations.
 Initial convergence to 1.0D-05 achieved.  Increase integral accuracy.
 SCF Done:  E(RB3LYP) =  -423.160671365     A.U. after   14 cycles
            NFock= 14  Conv=0.48D-08     -V/T= 2.0075

 **********************************************************************

            Population analysis using the SCF density.

 **********************************************************************

 Orbital symmetries:
       Occupied  (A) (A) (A) (A) (A) (A) (A) (A) (A) (A) (A) (A)
                 (A) (A) (A) (A) (A) (A) (A) (A) (A) (A) (A) (A)
                 (A) (A) (A) (A) (A) (A) (A) (A) (A) (A)
       Virtual   (A) (A) (A) (A) (A) (A) (A) (A) (A) (A) (A) (A)
                 (A) (A) (A) (A) (A) (A) (A) (A) (A) (A) (A) (A)
                 (A) (A) (A) (A) (A) (A) (A) (A) (A) (A) (A) (A)
                 (A) (A) (A) (A) (A) (A) (A) (A) (A) (A) (A) (A)
                 (A) (A) (A) (A) (A) (A) (A) (A) (A) (A) (A) (A)
                 (A) (A) (A) (A) (A) (A) (A) (A) (A) (A) (A) (A)
                 (A) (A) (A) (A) (A) (A) (A) (A) (A) (A) (A) (A)
                 (A) (A) (A) (A) (A) (A) (A) (A) (A) (A) (A) (A)
                 (A) (A) (A) (A) (A) (A) (A) (A) (A) (A) (A) (A)
                 (A) (A) (A) (A) (A) (A) (A) (A) (A) (A) (A) (A)
                 (A) (A) (A) (A) (A) (A) (A) (A) (A) (A) (A) (A)
                 (A) (A) (A) (A) (A) (A) (A) (A) (A) (A) (A) (A)
                 (A) (A) (A) (A) (A) (A) (A) (A) (A) (A) (A) (A)
                 (A) (A) (A) (A) (A) (A) (A) (A) (A) (A) (A) (A)
                 (A) (A) (A) (A) (A) (A) (A) (A) (A) (A) (A) (A)
                 (A) (A) (A) (A) (A) (A) (A) (A) (A) (A) (A) (A)
                 (A) (A) (A) (A) (A) (A) (A) (A) (A) (A) (A) (A)
                 (A) (A) (A) (A) (A) (A) (A) (A) (A) (A) (A) (A)
                 (A) (A) (A) (A) (A) (A) (A) (A) (A) (A) (A) (A)
                 (A) (A) (A) (A) (A) (A) (A) (A) (A) (A) (A) (A)
                 (A) (A) (A) (A) (A) (A) (A) (A) (A) (A) (A) (A)
                 (A) (A) (A) (A) (A) (A) (A) (A) (A) (A) (A) (A)
                 (A) (A) (A) (A)
 The electronic state is 1-A.
 Alpha  occ. eigenvalues --  -19.14811 -19.13856 -10.27112 -10.23830 -10.23356
 Alpha  occ. eigenvalues --  -10.21456 -10.21385 -10.20192 -10.19392  -1.06811
 Alpha  occ. eigenvalues --   -1.04563  -0.88395  -0.74369  -0.68478  -0.65358
 Alpha  occ. eigenvalues --   -0.64901  -0.58910  -0.55063  -0.50866  -0.49718
 Alpha  occ. eigenvalues --   -0.46440  -0.44662  -0.44177  -0.42843  -0.40228
 Alpha  occ. eigenvalues --   -0.39685  -0.39205  -0.38143  -0.36818  -0.33622
 Alpha  occ. eigenvalues --   -0.30779  -0.27614  -0.27029  -0.24957
 Alpha virt. eigenvalues --   -0.02886   0.07860   0.09284   0.10999   0.11690
 Alpha virt. eigenvalues --    0.12570   0.13322   0.13651   0.14782   0.15656
 Alpha virt. eigenvalues --    0.17061   0.17658   0.19288   0.19908   0.21409
 Alpha virt. eigenvalues --    0.24095   0.26467   0.27034   0.29397   0.30517
 Alpha virt. eigenvalues --    0.35979   0.40362   0.41898   0.43851   0.45253
 Alpha virt. eigenvalues --    0.47031   0.47454   0.49251   0.50632   0.52054
 Alpha virt. eigenvalues --    0.53053   0.55287   0.56598   0.57725   0.59654
 Alpha virt. eigenvalues --    0.61771   0.64428   0.64614   0.66016   0.67986
 Alpha virt. eigenvalues --    0.70429   0.71401   0.72534   0.72893   0.74036
 Alpha virt. eigenvalues --    0.74252   0.76519   0.76836   0.77148   0.78102
 Alpha virt. eigenvalues --    0.80856   0.81834   0.83238   0.85265   0.85570
 Alpha virt. eigenvalues --    0.88438   0.93320   0.94594   0.94807   0.98218
 Alpha virt. eigenvalues --    0.99732   1.00834   1.03016   1.03464   1.04987
 Alpha virt. eigenvalues --    1.07095   1.09997   1.11963   1.16158   1.19730
 Alpha virt. eigenvalues --    1.21042   1.21585   1.24184   1.29358   1.30345
 Alpha virt. eigenvalues --    1.30866   1.32990   1.34530   1.35882   1.37073
 Alpha virt. eigenvalues --    1.40246   1.41066   1.43449   1.44227   1.44906
 Alpha virt. eigenvalues --    1.49112   1.50950   1.52651   1.53268   1.54724
 Alpha virt. eigenvalues --    1.55966   1.58964   1.61714   1.63431   1.64174
 Alpha virt. eigenvalues --    1.66984   1.67774   1.69542   1.70682   1.74936
 Alpha virt. eigenvalues --    1.75803   1.81268   1.83468   1.85794   1.87380
 Alpha virt. eigenvalues --    1.90001   1.94701   1.95420   1.97964   2.03727
 Alpha virt. eigenvalues --    2.09086   2.12423   2.14990   2.24497   2.25200
 Alpha virt. eigenvalues --    2.26863   2.29512   2.34189   2.37039   2.40965
 Alpha virt. eigenvalues --    2.42959   2.46478   2.47751   2.50525   2.54903
 Alpha virt. eigenvalues --    2.58088   2.63263   2.67855   2.70524   2.72715
 Alpha virt. eigenvalues --    2.74103   2.79170   2.79684   2.81109   2.82423
 Alpha virt. eigenvalues --    2.84102   2.86231   2.89377   2.89875   2.93984
 Alpha virt. eigenvalues --    2.95673   2.97997   2.98712   3.00136   3.00545
 Alpha virt. eigenvalues --    3.05010   3.07306   3.08218   3.10771   3.11548
 Alpha virt. eigenvalues --    3.14171   3.16010   3.18314   3.21006   3.21776
 Alpha virt. eigenvalues --    3.22871   3.25809   3.28548   3.31025   3.31798
 Alpha virt. eigenvalues --    3.34888   3.37904   3.39092   3.41034   3.45312
 Alpha virt. eigenvalues --    3.46195   3.49189   3.52424   3.55026   3.56119
 Alpha virt. eigenvalues --    3.58130   3.61471   3.62825   3.64125   3.69539
 Alpha virt. eigenvalues --    3.74048   3.77098   3.82741   3.83961   3.89563
 Alpha virt. eigenvalues --    3.93059   3.98395   4.02774   4.10012   4.11812
 Alpha virt. eigenvalues --    4.13818   4.14951   4.16947   4.18829   4.21938
 Alpha virt. eigenvalues --    4.26861   4.28010   4.30656   4.32204   4.33339
 Alpha virt. eigenvalues --    4.35492   4.36836   4.37753   4.38658   4.42136
 Alpha virt. eigenvalues --    4.43621   4.46422   4.48197   4.49834   4.51999
 Alpha virt. eigenvalues --    4.54104   4.56599   4.57900   4.59694   4.60851
 Alpha virt. eigenvalues --    4.63723   4.65486   4.67438   4.71192   4.72204
 Alpha virt. eigenvalues --    4.73398   4.75127   4.77242   4.78719   4.80672
 Alpha virt. eigenvalues --    4.82026   4.82653   4.86284   4.88475   4.94076
 Alpha virt. eigenvalues --    4.94926   4.98982   4.99291   5.06330   5.07084
 Alpha virt. eigenvalues --    5.08243   5.09704   5.21616   5.23515   5.26185
 Alpha virt. eigenvalues --    5.31095   5.32376   5.37630   5.40777   5.45121
 Alpha virt. eigenvalues --    5.50387   5.52113   5.56139   5.57092   5.65871
 Alpha virt. eigenvalues --    5.70562   5.76482   5.88326   5.91022   6.00643
 Alpha virt. eigenvalues --    6.01181   6.03690   6.13756   6.20244   6.32300
 Alpha virt. eigenvalues --    6.37609   6.60733   6.82241   6.93439  10.43911
 Alpha virt. eigenvalues --   10.89499  11.30328  11.59276  11.86784  12.26935
 Alpha virt. eigenvalues --   12.61680  12.99832  13.20015
          Condensed to atoms (all electrons):
               1          2          3          4          5          6
     1  C    5.154982   0.388605  -0.053993  -0.042486   0.004132  -0.000084
     2  C    0.388605   4.877402   0.258489   0.311968  -0.030365   0.003727
     3  C   -0.053993   0.258489   5.140959   0.276750  -0.003114  -0.000627
     4  C   -0.042486   0.311968   0.276750   4.837434   0.438781  -0.004242
     5  C    0.004132  -0.030365  -0.003114   0.438781   4.664471   0.290046
     6  C   -0.000084   0.003727  -0.000627  -0.004242   0.290046   4.936410
     7  O    0.000035  -0.001388   0.003246  -0.020479   0.246254   0.275527
     8  C   -0.042479   0.293963   0.003897  -0.009506  -0.000001   0.000019
     9  O    0.002962  -0.067246  -0.004250  -0.012364  -0.002301   0.000213
    10  H    0.361293  -0.016902   0.004837  -0.001386  -0.000054  -0.000001
    11  H    0.364947  -0.020495  -0.002456   0.003355  -0.000116   0.000002
    12  H    0.367709  -0.013140  -0.003748  -0.004537   0.000335  -0.000017
    13  H   -0.006644  -0.016461   0.367927  -0.016330   0.001859   0.000052
    14  H    0.003331  -0.026726   0.369861  -0.017524  -0.006156   0.000565
    15  H   -0.011177  -0.035795  -0.035592   0.367346  -0.028383  -0.007087
    16  H   -0.000085  -0.014496   0.001735  -0.043469   0.362215  -0.032357
    17  H   -0.000004   0.000216  -0.000348  -0.005579  -0.000145   0.358565
    18  H    0.000000  -0.000146   0.000202   0.000836  -0.011366   0.366851
    19  H   -0.006789  -0.123380   0.007878   0.004338   0.000081   0.000011
               7          8          9         10         11         12
     1  C    0.000035  -0.042479   0.002962   0.361293   0.364947   0.367709
     2  C   -0.001388   0.293963  -0.067246  -0.016902  -0.020495  -0.013140
     3  C    0.003246   0.003897  -0.004250   0.004837  -0.002456  -0.003748
     4  C   -0.020479  -0.009506  -0.012364  -0.001386   0.003355  -0.004537
     5  C    0.246254  -0.000001  -0.002301  -0.000054  -0.000116   0.000335
     6  C    0.275527   0.000019   0.000213  -0.000001   0.000002  -0.000017
     7  O    7.805299   0.000167   0.000001  -0.000007   0.000000  -0.000001
     8  C    0.000167   4.565176   0.731053  -0.003196  -0.001514   0.002302
     9  O    0.000001   0.731053   7.648980  -0.000040   0.000063  -0.000040
    10  H   -0.000007  -0.003196  -0.000040   0.580279  -0.034224  -0.029389
    11  H    0.000000  -0.001514   0.000063  -0.034224   0.591077  -0.031052
    12  H   -0.000001   0.002302  -0.000040  -0.029389  -0.031052   0.581435
    13  H   -0.000035   0.002454   0.000266  -0.000017   0.001160   0.002126
    14  H    0.000026  -0.005210   0.013110  -0.000118   0.000193  -0.000113
    15  H   -0.000555   0.001806  -0.000129   0.001294  -0.000017   0.003630
    16  H   -0.018991   0.004627   0.015623   0.000012  -0.000001   0.000006
    17  H   -0.026552   0.000010  -0.000001   0.000000   0.000000   0.000002
    18  H   -0.020667   0.000002   0.000001   0.000000   0.000000   0.000000
    19  H   -0.000007   0.356478  -0.053339   0.005369   0.001958  -0.000346
              13         14         15         16         17         18
     1  C   -0.006644   0.003331  -0.011177  -0.000085  -0.000004   0.000000
     2  C   -0.016461  -0.026726  -0.035795  -0.014496   0.000216  -0.000146
     3  C    0.367927   0.369861  -0.035592   0.001735  -0.000348   0.000202
     4  C   -0.016330  -0.017524   0.367346  -0.043469  -0.005579   0.000836
     5  C    0.001859  -0.006156  -0.028383   0.362215  -0.000145  -0.011366
     6  C    0.000052   0.000565  -0.007087  -0.032357   0.358565   0.366851
     7  O   -0.000035   0.000026  -0.000555  -0.018991  -0.026552  -0.020667
     8  C    0.002454  -0.005210   0.001806   0.004627   0.000010   0.000002
     9  O    0.000266   0.013110  -0.000129   0.015623  -0.000001   0.000001
    10  H   -0.000017  -0.000118   0.001294   0.000012   0.000000   0.000000
    11  H    0.001160   0.000193  -0.000017  -0.000001   0.000000   0.000000
    12  H    0.002126  -0.000113   0.003630   0.000006   0.000002   0.000000
    13  H    0.585122  -0.033646  -0.007309  -0.000188  -0.000013  -0.000002
    14  H   -0.033646   0.555123   0.002522   0.003181  -0.000014  -0.000009
    15  H   -0.007309   0.002522   0.642919   0.005979   0.003102   0.000096
    16  H   -0.000188   0.003181   0.005979   0.587017   0.002077  -0.001147
    17  H   -0.000013  -0.000014   0.003102   0.002077   0.614181  -0.055114
    18  H   -0.000002  -0.000009   0.000096  -0.001147  -0.055114   0.603397
    19  H   -0.000043   0.000723  -0.000127   0.000648   0.000000   0.000000
              19
     1  C   -0.006789
     2  C   -0.123380
     3  C    0.007878
     4  C    0.004338
     5  C    0.000081
     6  C    0.000011
     7  O   -0.000007
     8  C    0.356478
     9  O   -0.053339
    10  H    0.005369
    11  H    0.001958
    12  H   -0.000346
    13  H   -0.000043
    14  H    0.000723
    15  H   -0.000127
    16  H    0.000648
    17  H    0.000000
    18  H    0.000000
    19  H    0.728255
 Mulliken charges:
               1
     1  C   -0.484256
     2  C    0.232169
     3  C   -0.331654
     4  C   -0.062907
     5  C    0.073826
     6  C   -0.187573
     7  O   -0.241873
     8  C    0.099953
     9  O   -0.272562
    10  H    0.132251
    11  H    0.127120
    12  H    0.124838
    13  H    0.119720
    14  H    0.140881
    15  H    0.097478
    16  H    0.127614
    17  H    0.109617
    18  H    0.117067
    19  H    0.078291
 Sum of Mulliken charges =   0.00000
 Mulliken charges with hydrogens summed into heavy atoms:
               1
     1  C   -0.100046
     2  C    0.232169
     3  C   -0.071054
     4  C    0.034571
     5  C    0.201440
     6  C    0.039110
     7  O   -0.241873
     8  C    0.178244
     9  O   -0.272562
 Electronic spatial extent (au):  <R**2>=           1258.0171
 Charge=              0.0000 electrons
 Dipole moment (field-independent basis, Debye):
    X=              0.7987    Y=             -2.6933    Z=              1.0281  Tot=              2.9914
 Quadrupole moment (field-independent basis, Debye-Ang):
   XX=            -49.9950   YY=            -56.4970   ZZ=            -54.4000
   XY=             -1.7639   XZ=             -5.1000   YZ=             -1.0571
 Traceless Quadrupole moment (field-independent basis, Debye-Ang):
   XX=              3.6357   YY=             -2.8663   ZZ=             -0.7693
   XY=             -1.7639   XZ=             -5.1000   YZ=             -1.0571
 Octapole moment (field-independent basis, Debye-Ang**2):
  XXX=             -8.6994  YYY=            -10.7737  ZZZ=             -0.9848  XYY=             -8.7144
  XXY=              0.6277  XXZ=              6.1602  XZZ=              6.2877  YZZ=              3.4717
  YYZ=             -1.7966  XYZ=             -3.3427
 Hexadecapole moment (field-independent basis, Debye-Ang**3):
 XXXX=           -935.1449 YYYY=           -418.8708 ZZZZ=           -229.4117 XXXY=             11.3419
 XXXZ=            -18.2367 YYYX=             -7.8660 YYYZ=             -4.7909 ZZZX=              5.8231
 ZZZY=              1.8310 XXYY=           -228.0301 XXZZ=           -214.4039 YYZZ=           -102.7642
 XXYZ=             -1.0843 YYXZ=              1.5206 ZZXY=              2.3169
 N-N= 4.495768522432D+02 E-N=-1.885426848526D+03  KE= 4.199941075030D+02
 Calling FoFJK, ICntrl=      2127 FMM=F ISym2X=0 I1Cent= 0 IOpClX= 0 NMat=1 NMatS=1 NMatT=0.
 ***** Axes restored to original set *****
 -------------------------------------------------------------------
 Center     Atomic                   Forces (Hartrees/Bohr)
 Number     Number              X              Y              Z
 -------------------------------------------------------------------
      1        6           0.000027977    0.000001431   -0.000009129
      2        6          -0.000020380    0.000019536   -0.000001146
      3        6          -0.000015044    0.000001285   -0.000009369
      4        6           0.000025100   -0.000020961    0.000011628
      5        6          -0.000014032   -0.000003632    0.000008901
      6        6          -0.000001614   -0.000006246   -0.000006418
      7        8          -0.000000311    0.000012330   -0.000000726
      8        6          -0.000028167   -0.000014474    0.000024220
      9        8           0.000033945    0.000009598   -0.000022872
     10        1          -0.000002598    0.000007132    0.000006799
     11        1          -0.000001632    0.000003724    0.000001844
     12        1          -0.000005843    0.000003443    0.000009632
     13        1          -0.000002458   -0.000002781    0.000000654
     14        1           0.000000332   -0.000007943    0.000001960
     15        1          -0.000006831    0.000010444    0.000001168
     16        1           0.000003362   -0.000005831   -0.000003611
     17        1          -0.000004571   -0.000002054    0.000002608
     18        1          -0.000004310   -0.000004096   -0.000002836
     19        1           0.000017076   -0.000000905   -0.000013307
 -------------------------------------------------------------------
 Cartesian Forces:  Max     0.000033945 RMS     0.000011974

 GradGradGradGradGradGradGradGradGradGradGradGradGradGradGradGradGradGrad
 Berny optimization.
 FormGI is forming the generalized inverse of G from B-inverse, IUseBI=4.
 Internal  Forces:  Max     0.000035420 RMS     0.000005569
 Search for a local minimum.
 Step number   1 out of a maximum of  104
 All quantities printed in internal units (Hartrees-Bohrs-Radians)
 Mixed Optimization -- En-DIIS/RFO-DIIS
 Second derivative matrix not updated -- first step.
 ITU=  0
     Eigenvalues ---    0.00553   0.00898   0.00906   0.00906   0.01912
     Eigenvalues ---    0.01946   0.02421   0.02487   0.03213   0.03388
     Eigenvalues ---    0.03901   0.04171   0.04492   0.05582   0.05642
     Eigenvalues ---    0.09617   0.10432   0.12610   0.14314   0.15441
     Eigenvalues ---    0.15910   0.16000   0.16000   0.16000   0.16000
     Eigenvalues ---    0.16000   0.16000   0.17871   0.19325   0.19551
     Eigenvalues ---    0.22000   0.23901   0.25455   0.30746   0.30800
     Eigenvalues ---    0.31288   0.32256   0.33449   0.33516   0.34151
     Eigenvalues ---    0.34174   0.34420   0.34827   0.34898   0.35140
     Eigenvalues ---    0.35171   0.35398   0.35470   0.36472   0.40259
     Eigenvalues ---    1.00145
 RFO step:  Lambda=-1.54094170D-08 EMin= 5.53106937D-03
 Linear search not attempted -- first point.
 Iteration  1 RMS(Cart)=  0.00009337 RMS(Int)=  0.00000001
 Iteration  2 RMS(Cart)=  0.00000001 RMS(Int)=  0.00000000
 Variable       Old X    -DE/DX   Delta X   Delta X   Delta X     New X
                                 (Linear)    (Quad)   (Total)
    R1        2.86499  -0.00001   0.00000  -0.00003  -0.00003   2.86497
    R2        2.07037   0.00000   0.00000   0.00001   0.00001   2.07038
    R3        2.07076   0.00000   0.00000   0.00000   0.00000   2.07076
    R4        2.06626   0.00000   0.00000   0.00001   0.00001   2.06627
    R5        2.86675   0.00000   0.00000   0.00000   0.00000   2.86675
    R6        2.92005   0.00000   0.00000   0.00002   0.00002   2.92006
    R7        2.81455   0.00000   0.00000   0.00000   0.00000   2.81455
    R8        2.82607   0.00001   0.00000   0.00002   0.00002   2.82609
    R9        2.04918   0.00000   0.00000   0.00000   0.00000   2.04918
   R10        2.05034   0.00000   0.00000   0.00000   0.00000   2.05034
   R11        2.81570  -0.00001   0.00000  -0.00002  -0.00002   2.81568
   R12        2.05398  -0.00001   0.00000  -0.00001  -0.00001   2.05397
   R13        2.77634   0.00000   0.00000  -0.00001  -0.00001   2.77633
   R14        2.71160  -0.00001   0.00000  -0.00003  -0.00003   2.71157
   R15        2.05449   0.00000   0.00000   0.00000   0.00000   2.05449
   R16        2.69673   0.00001   0.00000   0.00003   0.00003   2.69675
   R17        2.05957   0.00000   0.00000   0.00000   0.00000   2.05957
   R18        2.05841   0.00000   0.00000   0.00000   0.00000   2.05841
   R19        2.28581   0.00004   0.00000   0.00004   0.00004   2.28584
   R20        2.10378  -0.00001   0.00000  -0.00004  -0.00004   2.10374
    A1        1.94267   0.00001   0.00000   0.00005   0.00005   1.94272
    A2        1.94339   0.00000   0.00000   0.00002   0.00002   1.94341
    A3        1.93634   0.00001   0.00000   0.00004   0.00004   1.93638
    A4        1.88328  -0.00001   0.00000  -0.00003  -0.00003   1.88325
    A5        1.87850  -0.00001   0.00000  -0.00005  -0.00005   1.87845
    A6        1.87676  -0.00001   0.00000  -0.00004  -0.00004   1.87673
    A7        2.09554   0.00000   0.00000   0.00000   0.00000   2.09555
    A8        2.05508   0.00000   0.00000  -0.00002  -0.00002   2.05506
    A9        2.01246   0.00001   0.00000   0.00005   0.00005   2.01251
   A10        2.03044   0.00000   0.00000   0.00001   0.00001   2.03045
   A11        2.04493  -0.00001   0.00000  -0.00009  -0.00009   2.04484
   A12        2.04877   0.00000   0.00000   0.00003   0.00003   2.04880
   A13        2.01467   0.00000   0.00000   0.00000   0.00000   2.01467
   A14        2.07227   0.00001   0.00000   0.00001   0.00001   2.07228
   A15        2.04674  -0.00001   0.00000  -0.00007  -0.00007   2.04667
   A16        2.01712   0.00000   0.00000   0.00001   0.00001   2.01714
   A17        2.14065   0.00000   0.00000  -0.00002  -0.00002   2.14063
   A18        1.96762   0.00000   0.00000  -0.00004  -0.00004   1.96758
   A19        2.12051   0.00000   0.00000  -0.00001  -0.00001   2.12050
   A20        2.03998  -0.00001   0.00000  -0.00004  -0.00004   2.03994
   A21        1.97622   0.00001   0.00000   0.00006   0.00006   1.97628
   A22        2.10758   0.00000   0.00000   0.00000   0.00000   2.10758
   A23        2.02116   0.00000   0.00000   0.00003   0.00003   2.02119
   A24        2.02072   0.00000   0.00000   0.00001   0.00001   2.02073
   A25        2.06625   0.00000   0.00000  -0.00003  -0.00003   2.06621
   A26        1.99668   0.00000   0.00000  -0.00002  -0.00002   1.99666
   A27        2.08708   0.00000   0.00000   0.00000   0.00000   2.08708
   A28        2.08884   0.00000   0.00000  -0.00002  -0.00002   2.08882
   A29        2.01498   0.00000   0.00000   0.00002   0.00002   2.01500
   A30        2.01932   0.00000   0.00000   0.00002   0.00002   2.01933
   A31        2.00839   0.00000   0.00000   0.00000   0.00000   2.00840
   A32        2.18897   0.00000   0.00000  -0.00002  -0.00002   2.18895
   A33        1.99189   0.00001   0.00000   0.00004   0.00004   1.99194
   A34        2.10231   0.00000   0.00000  -0.00002  -0.00002   2.10229
    D1        2.69919   0.00000   0.00000   0.00012   0.00012   2.69931
    D2        1.51653   0.00000   0.00000   0.00012   0.00012   1.51665
    D3       -1.01460   0.00000   0.00000   0.00025   0.00025  -1.01435
    D4       -1.48181   0.00000   0.00000   0.00013   0.00013  -1.48168
    D5       -2.66447   0.00000   0.00000   0.00013   0.00013  -2.66434
    D6        1.08758   0.00000   0.00000   0.00026   0.00026   1.08784
    D7        0.60784   0.00000   0.00000   0.00012   0.00012   0.60796
    D8       -0.57482   0.00000   0.00000   0.00012   0.00012  -0.57470
    D9       -3.10595   0.00000   0.00000   0.00025   0.00025  -3.10571
   D10        0.06319   0.00000   0.00000   0.00003   0.00003   0.06322
   D11        2.53610   0.00000   0.00000   0.00010   0.00010   2.53619
   D12       -2.50057  -0.00001   0.00000  -0.00011  -0.00011  -2.50068
   D13       -0.02766   0.00000   0.00000  -0.00004  -0.00004  -0.02770
   D14       -2.44081   0.00000   0.00000   0.00001   0.00001  -2.44080
   D15        0.01893   0.00000   0.00000   0.00004   0.00004   0.01897
   D16        0.07899   0.00000   0.00000  -0.00007  -0.00007   0.07893
   D17        2.53873   0.00000   0.00000  -0.00004  -0.00004   2.53869
   D18       -2.90642   0.00000   0.00000   0.00020   0.00020  -2.90623
   D19        0.23703   0.00000   0.00000   0.00007   0.00007   0.23710
   D20       -0.31508   0.00000   0.00000   0.00031   0.00031  -0.31476
   D21        2.82837   0.00000   0.00000   0.00019   0.00019   2.82856
   D22        0.84196   0.00000   0.00000   0.00029   0.00029   0.84225
   D23       -2.29778   0.00000   0.00000   0.00017   0.00017  -2.29761
   D24        2.45105   0.00000   0.00000  -0.00001  -0.00001   2.45104
   D25       -0.09741   0.00000   0.00000  -0.00006  -0.00006  -0.09748
   D26       -0.11043   0.00000   0.00000   0.00005   0.00005  -0.11037
   D27       -2.65889   0.00000   0.00000   0.00000   0.00000  -2.65889
   D28        2.91047   0.00000   0.00000   0.00006   0.00006   2.91053
   D29        1.73043   0.00000   0.00000   0.00002   0.00002   1.73046
   D30       -0.67806   0.00000   0.00000   0.00000   0.00000  -0.67806
   D31       -2.11443   0.00000   0.00000   0.00004   0.00004  -2.11439
   D32        2.98871   0.00000   0.00000   0.00000   0.00000   2.98871
   D33        0.58022   0.00000   0.00000  -0.00002  -0.00002   0.58020
   D34        0.45371   0.00000   0.00000   0.00006   0.00006   0.45377
   D35       -0.72633   0.00000   0.00000   0.00003   0.00003  -0.72631
   D36       -3.13482   0.00000   0.00000   0.00000   0.00000  -3.13483
   D37        0.00618   0.00000   0.00000  -0.00003  -0.00003   0.00615
   D38        2.66219   0.00000   0.00000  -0.00007  -0.00007   2.66212
   D39       -2.67715   0.00000   0.00000   0.00003   0.00003  -2.67713
   D40       -0.02114   0.00000   0.00000  -0.00001  -0.00001  -0.02116
         Item               Value     Threshold  Converged?
 Maximum Force            0.000035     0.000450     YES
 RMS     Force            0.000006     0.000300     YES
 Maximum Displacement     0.000388     0.001800     YES
 RMS     Displacement     0.000093     0.001200     YES
 Predicted change in Energy=-7.704767D-09
 Optimization completed.
    -- Stationary point found.
                           ----------------------------
                           !   Optimized Parameters   !
                           ! (Angstroms and Degrees)  !
 --------------------------                            --------------------------
 ! Name  Definition              Value          Derivative Info.                !
 --------------------------------------------------------------------------------
 ! R1    R(1,2)                  1.5161         -DE/DX =    0.0                 !
 ! R2    R(1,10)                 1.0956         -DE/DX =    0.0                 !
 ! R3    R(1,11)                 1.0958         -DE/DX =    0.0                 !
 ! R4    R(1,12)                 1.0934         -DE/DX =    0.0                 !
 ! R5    R(2,3)                  1.517          -DE/DX =    0.0                 !
 ! R6    R(2,4)                  1.5452         -DE/DX =    0.0                 !
 ! R7    R(2,8)                  1.4894         -DE/DX =    0.0                 !
 ! R8    R(3,4)                  1.4955         -DE/DX =    0.0                 !
 ! R9    R(3,13)                 1.0844         -DE/DX =    0.0                 !
 ! R10   R(3,14)                 1.085          -DE/DX =    0.0                 !
 ! R11   R(4,5)                  1.49           -DE/DX =    0.0                 !
 ! R12   R(4,15)                 1.0869         -DE/DX =    0.0                 !
 ! R13   R(5,6)                  1.4692         -DE/DX =    0.0                 !
 ! R14   R(5,7)                  1.4349         -DE/DX =    0.0                 !
 ! R15   R(5,16)                 1.0872         -DE/DX =    0.0                 !
 ! R16   R(6,7)                  1.427          -DE/DX =    0.0                 !
 ! R17   R(6,17)                 1.0899         -DE/DX =    0.0                 !
 ! R18   R(6,18)                 1.0893         -DE/DX =    0.0                 !
 ! R19   R(8,9)                  1.2096         -DE/DX =    0.0                 !
 ! R20   R(8,19)                 1.1133         -DE/DX =    0.0                 !
 ! A1    A(2,1,10)             111.3067         -DE/DX =    0.0                 !
 ! A2    A(2,1,11)             111.3482         -DE/DX =    0.0                 !
 ! A3    A(2,1,12)             110.9442         -DE/DX =    0.0                 !
 ! A4    A(10,1,11)            107.9041         -DE/DX =    0.0                 !
 ! A5    A(10,1,12)            107.6299         -DE/DX =    0.0                 !
 ! A6    A(11,1,12)            107.5306         -DE/DX =    0.0                 !
 ! A7    A(1,2,3)              120.0657         -DE/DX =    0.0                 !
 ! A8    A(1,2,4)              117.7473         -DE/DX =    0.0                 !
 ! A9    A(1,2,8)              115.3055         -DE/DX =    0.0                 !
 ! A10   A(3,2,8)              116.3357         -DE/DX =    0.0                 !
 ! A11   A(4,2,8)              117.166          -DE/DX =    0.0                 !
 ! A12   A(2,3,13)             117.3858         -DE/DX =    0.0                 !
 ! A13   A(2,3,14)             115.4319         -DE/DX =    0.0                 !
 ! A14   A(4,3,13)             118.7323         -DE/DX =    0.0                 !
 ! A15   A(4,3,14)             117.2694         -DE/DX =    0.0                 !
 ! A16   A(13,3,14)            115.5727         -DE/DX =    0.0                 !
 ! A17   A(2,4,5)              122.6503         -DE/DX =    0.0                 !
 ! A18   A(2,4,15)             112.7361         -DE/DX =    0.0                 !
 ! A19   A(3,4,5)              121.4961         -DE/DX =    0.0                 !
 ! A20   A(3,4,15)             116.8822         -DE/DX =    0.0                 !
 ! A21   A(5,4,15)             113.2289         -DE/DX =    0.0                 !
 ! A22   A(4,5,6)              120.7556         -DE/DX =    0.0                 !
 ! A23   A(4,5,7)              115.8038         -DE/DX =    0.0                 !
 ! A24   A(4,5,16)             115.7786         -DE/DX =    0.0                 !
 ! A25   A(6,5,16)             118.3873         -DE/DX =    0.0                 !
 ! A26   A(7,5,16)             114.4011         -DE/DX =    0.0                 !
 ! A27   A(5,6,17)             119.5808         -DE/DX =    0.0                 !
 ! A28   A(5,6,18)             119.6817         -DE/DX =    0.0                 !
 ! A29   A(7,6,17)             115.4499         -DE/DX =    0.0                 !
 ! A30   A(7,6,18)             115.6984         -DE/DX =    0.0                 !
 ! A31   A(17,6,18)            115.0725         -DE/DX =    0.0                 !
 ! A32   A(2,8,9)              125.419          -DE/DX =    0.0                 !
 ! A33   A(2,8,19)             114.1271         -DE/DX =    0.0                 !
 ! A34   A(9,8,19)             120.4538         -DE/DX =    0.0                 !
 ! D1    D(10,1,2,3)           154.6523         -DE/DX =    0.0                 !
 ! D2    D(10,1,2,4)            86.8909         -DE/DX =    0.0                 !
 ! D3    D(10,1,2,8)           -58.1323         -DE/DX =    0.0                 !
 ! D4    D(11,1,2,3)           -84.9015         -DE/DX =    0.0                 !
 ! D5    D(11,1,2,4)          -152.6629         -DE/DX =    0.0                 !
 ! D6    D(11,1,2,8)            62.3139         -DE/DX =    0.0                 !
 ! D7    D(12,1,2,3)            34.8265         -DE/DX =    0.0                 !
 ! D8    D(12,1,2,4)           -32.9349         -DE/DX =    0.0                 !
 ! D9    D(12,1,2,8)          -177.9581         -DE/DX =    0.0                 !
 ! D10   D(1,2,3,13)             3.6205         -DE/DX =    0.0                 !
 ! D11   D(1,2,3,14)           145.3076         -DE/DX =    0.0                 !
 ! D12   D(8,2,3,13)          -143.2719         -DE/DX =    0.0                 !
 ! D13   D(8,2,3,14)            -1.5848         -DE/DX =    0.0                 !
 ! D14   D(1,2,4,5)           -139.8479         -DE/DX =    0.0                 !
 ! D15   D(1,2,4,15)             1.0847         -DE/DX =    0.0                 !
 ! D16   D(8,2,4,5)              4.5259         -DE/DX =    0.0                 !
 ! D17   D(8,2,4,15)           145.4585         -DE/DX =    0.0                 !
 ! D18   D(1,2,8,9)           -166.5257         -DE/DX =    0.0                 !
 ! D19   D(1,2,8,19)            13.5807         -DE/DX =    0.0                 !
 ! D20   D(3,2,8,9)            -18.0525         -DE/DX =    0.0                 !
 ! D21   D(3,2,8,19)           162.0539         -DE/DX =    0.0                 !
 ! D22   D(4,2,8,9)             48.2407         -DE/DX =    0.0                 !
 ! D23   D(4,2,8,19)          -131.6529         -DE/DX =    0.0                 !
 ! D24   D(13,3,4,5)           140.4349         -DE/DX =    0.0                 !
 ! D25   D(13,3,4,15)           -5.5813         -DE/DX =    0.0                 !
 ! D26   D(14,3,4,5)            -6.327          -DE/DX =    0.0                 !
 ! D27   D(14,3,4,15)         -152.3433         -DE/DX =    0.0                 !
 ! D28   D(2,4,5,6)            166.7579         -DE/DX =    0.0                 !
 ! D29   D(2,4,5,7)             99.1465         -DE/DX =    0.0                 !
 ! D30   D(2,4,5,16)           -38.8498         -DE/DX =    0.0                 !
 ! D31   D(3,4,5,6)           -121.1481         -DE/DX =    0.0                 !
 ! D32   D(3,4,5,7)            171.2405         -DE/DX =    0.0                 !
 ! D33   D(3,4,5,16)            33.2442         -DE/DX =    0.0                 !
 ! D34   D(15,4,5,6)            25.9954         -DE/DX =    0.0                 !
 ! D35   D(15,4,5,7)           -41.6159         -DE/DX =    0.0                 !
 ! D36   D(15,4,5,16)         -179.6122         -DE/DX =    0.0                 !
 ! D37   D(4,5,6,17)             0.354          -DE/DX =    0.0                 !
 ! D38   D(4,5,6,18)           152.5322         -DE/DX =    0.0                 !
 ! D39   D(16,5,6,17)         -153.3896         -DE/DX =    0.0                 !
 ! D40   D(16,5,6,18)           -1.2114         -DE/DX =    0.0                 !
 --------------------------------------------------------------------------------
 GradGradGradGradGradGradGradGradGradGradGradGradGradGradGradGradGradGrad

                          Input orientation:                          
 ---------------------------------------------------------------------
 Center     Atomic      Atomic             Coordinates (Angstroms)
 Number     Number       Type             X           Y           Z
 ---------------------------------------------------------------------
      1          6           0        0.919047   -1.966260    1.446580
      2          6           0        2.351298   -1.966206    0.949401
      3          6           0        2.666189   -2.427361   -0.461104
      4          6           0        3.017875   -3.333133    0.675732
      5          6           0        4.435792   -3.621600    1.031285
      6          6           0        4.946731   -4.999051    1.024606
      7          8           0        4.638476   -4.344026    2.254396
      8          6           0        3.216268   -0.885918    1.499946
      9          8           0        4.301454   -0.569053    1.069721
     10          1           0        0.876530   -2.051379    2.538034
     11          1           0        0.397217   -1.046343    1.159840
     12          1           0        0.359636   -2.806755    1.026824
     13          1           0        1.829260   -2.691199   -1.098146
     14          1           0        3.481265   -1.905029   -0.951036
     15          1           0        2.350440   -4.170656    0.861420
     16          1           0        5.138976   -2.808677    0.867991
     17          1           0        4.281956   -5.818154    0.750790
     18          1           0        6.004438   -5.181112    0.838595
     19          1           0        2.782481   -0.359609    2.379837
 ---------------------------------------------------------------------
                    Distance matrix (angstroms):
                    1          2          3          4          5
     1  C    0.000000
     2  C    1.516090   0.000000
     3  C    2.627618   1.517019   0.000000
     4  C    2.620616   1.545221   1.495493   0.000000
     5  C    3.908979   2.663110   2.604789   1.490007   0.000000
     6  C    5.059459   3.992503   3.744569   2.572447   1.469174
     7  O    4.487816   3.547989   3.864901   2.477989   1.434915
     8  C    2.539136   1.489394   2.554281   2.589894   3.031640
     9  O    3.678979   2.402004   2.910469   3.072936   3.055743
    10  H    1.095593   2.169320   3.512702   3.113908   4.171838
    11  H    1.095798   2.169991   3.111736   3.511640   4.791509
    12  H    1.093420   2.163153   2.770930   2.732503   4.156806
    13  H    2.798152   2.233962   1.084382   2.229693   3.492010
    14  H    3.509597   2.211838   1.084994   2.213726   2.790579
    15  H    2.692705   2.206205   2.210847   1.086920   2.163102
    16  H    4.341915   2.913337   2.833120   2.193419   1.087188
    17  H    5.160462   4.313281   3.946754   2.789062   2.219727
    18  H    6.046993   4.867580   4.518437   3.515837   2.220328
    19  H    2.631479   2.193905   3.515689   3.435292   3.897771
                    6          7          8          9         10
     6  C    0.000000
     7  O    1.427046   0.000000
     8  C    4.487573   3.814496   0.000000
     9  O    4.476974   3.970826   1.209597   0.000000
    10  H    5.248407   4.414626   2.812526   4.010404   0.000000
    11  H    6.028289   5.482795   2.844021   3.934335   1.771795
    12  H    5.084054   4.709417   3.474738   4.532888   1.766785
    13  H    4.421639   4.675796   3.454405   3.913425   3.812987
    14  H    3.952686   4.190780   2.667606   2.557538   4.356567
    15  H    2.730128   2.684315   3.456426   4.101389   3.078113
    16  H    2.204365   2.128360   2.791625   2.399594   4.640149
    17  H    1.089876   2.135647   5.101360   5.258817   5.383286
    18  H    1.089261   2.138003   5.163329   4.921855   6.243298
    19  H    5.295758   4.397275   1.113275   2.016817   2.553382
                   11         12         13         14         15
    11  H    0.000000
    12  H    1.765829   0.000000
    13  H    3.139235   2.586241   0.000000
    14  H    3.834643   3.803893   1.835436   0.000000
    15  H    3.696683   2.418860   2.510044   3.113973   0.000000
    16  H    5.067077   4.781978   3.851457   2.621725   3.103379
    17  H    6.166741   4.952708   4.383165   4.341643   2.541111
    18  H    6.974270   6.126728   5.232853   4.505763   3.791206
    19  H    2.765769   3.699911   4.294335   3.737825   4.125085
                   16         17         18         19
    16  H    0.000000
    17  H    3.131321   0.000000
    18  H    2.525537   1.838607   0.000000
    19  H    3.719768   5.890495   6.000277   0.000000
 Stoichiometry    C7H10O2
 Framework group  C1[X(C7H10O2)]
 Deg. of freedom    51
 Full point group                 C1      NOp   1
 Largest Abelian subgroup         C1      NOp   1
 Largest concise Abelian subgroup C1      NOp   1
                         Standard orientation:                         
 ---------------------------------------------------------------------
 Center     Atomic      Atomic             Coordinates (Angstroms)
 Number     Number       Type             X           Y           Z
 ---------------------------------------------------------------------
      1          6           0        2.080431   -1.336913   -0.718524
      2          6           0        1.207804   -0.314658   -0.017063
      3          6           0        0.751087   -0.556102    1.409282
      4          6           0       -0.248819   -0.714566    0.308564
      5          6           0       -1.394045    0.226309    0.155818
      6          6           0       -2.778765   -0.263119    0.194332
      7          8           0       -2.164272    0.082783   -1.046318
      8          6           0        1.454105    1.103183   -0.400938
      9          8           0        1.040817    2.072278    0.193345
     10          1           0        1.965826   -1.278564   -1.806543
     11          1           0        3.139867   -1.185913   -0.482799
     12          1           0        1.816270   -2.352613   -0.411703
     13          1           0        1.122238   -1.444447    1.908253
     14          1           0        0.671399    0.330627    2.029423
     15          1           0       -0.484387   -1.730110    0.001037
     16          1           0       -1.201638    1.256328    0.445675
     17          1           0       -2.969852   -1.325892    0.342086
     18          1           0       -3.576134    0.399940    0.527568
     19          1           0        2.073266    1.225352   -1.318050
 ---------------------------------------------------------------------
 Rotational constants (GHZ):      2.5111839      1.1940459      1.0243339
 1\1\GINC-ALCHEMY-AL\FOpt\RB3LYP\6-31G(2df,p)\C7H10O2\PUCK\27-Jan-2020\
 0\\# b3lyp 6-31G(2df,p) opt Freq\\titel\\0,1\C,0.9190472102,-1.9662597
 445,1.4465803823\C,2.3512978349,-1.9662059768,0.9494011574\C,2.6661889
 192,-2.4273614541,-0.4611039763\C,3.0178753961,-3.3331327697,0.6757317
 637\C,4.4357922328,-3.6216004384,1.0312845722\C,4.94673132,-4.99905093
 94,1.0246060211\O,4.6384760954,-4.3440261013,2.2543955997\C,3.21626836
 38,-0.8859180066,1.4999459603\O,4.3014544451,-0.5690534492,1.069721166
 2\H,0.8765303659,-2.0513787847,2.5380344837\H,0.3972173865,-1.04634331
 13,1.15984049\H,0.3596364465,-2.8067545294,1.0268240367\H,1.829259617,
 -2.6911988807,-1.098146026\H,3.4812648596,-1.9050292283,-0.951035884\H
 ,2.3504399757,-4.170656048,0.8614200872\H,5.1389758679,-2.8086767114,0
 .8679909161\H,4.2819563401,-5.8181538766,0.7507898921\H,6.0044382085,-
 5.1811122395,0.8385950743\H,2.7824814648,-0.35960912,2.3798371333\\Ver
 sion=ES64L-G09RevD.01\State=1-A\HF=-423.1606714\RMSD=4.841e-09\RMSF=1.
 197e-05\Dipole=-0.944837,-0.4196745,-0.5623724\Quadrupole=1.6334693,-0
 .7586541,-0.8748152,-3.0370699,-1.5942934,3.0053661\PG=C01 [X(C7H10O2)
 ]\\@


 If your ship doesn't come in, swim out to it!
                          -- Jonathan Winters
 Job cpu time:       0 days  0 hours  5 minutes 52.9 seconds.
 File lengths (MBytes):  RWF=     52 Int=      0 D2E=      0 Chk=      7 Scr=      1
 Normal termination of Gaussian 09 at Mon Jan 27 16:27:52 2020.
 Link1:  Proceeding to internal job step number  2.
 ----------------------------------------------------------------------
 #N Geom=AllCheck Guess=TCheck SCRF=Check GenChk RB3LYP/6-31G(2df,p) Fr
 eq
 ----------------------------------------------------------------------
 1/10=4,29=7,30=1,38=1,40=1/1,3;
 2/12=2,40=1/2;
 3/5=1,6=6,7=104,11=2,14=-4,16=1,25=1,30=1,70=2,71=2,74=-5,116=1,140=1/1,2,3;
 4/5=101/1;
 5/5=2,98=1/2;
 8/6=4,10=90,11=11/1;
 11/6=1,8=1,9=11,15=111,16=1/1,2,10;
 10/6=1/2;
 6/7=2,8=2,9=2,10=2,18=1,28=1/1;
 7/8=1,10=1,25=1/1,2,3,16;
 1/10=4,30=1/3;
 99//99;
 Structure from the checkpoint file:  "/scratch/puck/g09_f6da379d-11d5-45ea-975f-df57d13a7c66/Gau-109762.chk"
 -----
 titel
 -----
 Charge =  0 Multiplicity = 1
 Redundant internal coordinates found in file.
 C,0,0.9190472102,-1.9662597445,1.4465803823
 C,0,2.3512978349,-1.9662059768,0.9494011574
 C,0,2.6661889192,-2.4273614541,-0.4611039763
 C,0,3.0178753961,-3.3331327697,0.6757317637
 C,0,4.4357922328,-3.6216004384,1.0312845722
 C,0,4.94673132,-4.9990509394,1.0246060211
 O,0,4.6384760954,-4.3440261013,2.2543955997
 C,0,3.2162683638,-0.8859180066,1.4999459603
 O,0,4.3014544451,-0.5690534492,1.0697211662
 H,0,0.8765303659,-2.0513787847,2.5380344837
 H,0,0.3972173865,-1.0463433113,1.15984049
 H,0,0.3596364465,-2.8067545294,1.0268240367
 H,0,1.829259617,-2.6911988807,-1.098146026
 H,0,3.4812648596,-1.9050292283,-0.951035884
 H,0,2.3504399757,-4.170656048,0.8614200872
 H,0,5.1389758679,-2.8086767114,0.8679909161
 H,0,4.2819563401,-5.8181538766,0.7507898921
 H,0,6.0044382085,-5.1811122395,0.8385950743
 H,0,2.7824814648,-0.35960912,2.3798371333
 Recover connectivity data from disk.

 GradGradGradGradGradGradGradGradGradGradGradGradGradGradGradGradGradGrad
 Berny optimization.
 Initialization pass.
                           ----------------------------
                           !    Initial Parameters    !
                           ! (Angstroms and Degrees)  !
 --------------------------                            --------------------------
 ! Name  Definition              Value          Derivative Info.                !
 --------------------------------------------------------------------------------
 ! R1    R(1,2)                  1.5161         calculate D2E/DX2 analytically  !
 ! R2    R(1,10)                 1.0956         calculate D2E/DX2 analytically  !
 ! R3    R(1,11)                 1.0958         calculate D2E/DX2 analytically  !
 ! R4    R(1,12)                 1.0934         calculate D2E/DX2 analytically  !
 ! R5    R(2,3)                  1.517          calculate D2E/DX2 analytically  !
 ! R6    R(2,4)                  1.5452         calculate D2E/DX2 analytically  !
 ! R7    R(2,8)                  1.4894         calculate D2E/DX2 analytically  !
 ! R8    R(3,4)                  1.4955         calculate D2E/DX2 analytically  !
 ! R9    R(3,13)                 1.0844         calculate D2E/DX2 analytically  !
 ! R10   R(3,14)                 1.085          calculate D2E/DX2 analytically  !
 ! R11   R(4,5)                  1.49           calculate D2E/DX2 analytically  !
 ! R12   R(4,15)                 1.0869         calculate D2E/DX2 analytically  !
 ! R13   R(5,6)                  1.4692         calculate D2E/DX2 analytically  !
 ! R14   R(5,7)                  1.4349         calculate D2E/DX2 analytically  !
 ! R15   R(5,16)                 1.0872         calculate D2E/DX2 analytically  !
 ! R16   R(6,7)                  1.427          calculate D2E/DX2 analytically  !
 ! R17   R(6,17)                 1.0899         calculate D2E/DX2 analytically  !
 ! R18   R(6,18)                 1.0893         calculate D2E/DX2 analytically  !
 ! R19   R(8,9)                  1.2096         calculate D2E/DX2 analytically  !
 ! R20   R(8,19)                 1.1133         calculate D2E/DX2 analytically  !
 ! A1    A(2,1,10)             111.3067         calculate D2E/DX2 analytically  !
 ! A2    A(2,1,11)             111.3482         calculate D2E/DX2 analytically  !
 ! A3    A(2,1,12)             110.9442         calculate D2E/DX2 analytically  !
 ! A4    A(10,1,11)            107.9041         calculate D2E/DX2 analytically  !
 ! A5    A(10,1,12)            107.6299         calculate D2E/DX2 analytically  !
 ! A6    A(11,1,12)            107.5306         calculate D2E/DX2 analytically  !
 ! A7    A(1,2,3)              120.0657         calculate D2E/DX2 analytically  !
 ! A8    A(1,2,4)              117.7473         calculate D2E/DX2 analytically  !
 ! A9    A(1,2,8)              115.3055         calculate D2E/DX2 analytically  !
 ! A10   A(3,2,8)              116.3357         calculate D2E/DX2 analytically  !
 ! A11   A(4,2,8)              117.166          calculate D2E/DX2 analytically  !
 ! A12   A(2,3,13)             117.3858         calculate D2E/DX2 analytically  !
 ! A13   A(2,3,14)             115.4319         calculate D2E/DX2 analytically  !
 ! A14   A(4,3,13)             118.7323         calculate D2E/DX2 analytically  !
 ! A15   A(4,3,14)             117.2694         calculate D2E/DX2 analytically  !
 ! A16   A(13,3,14)            115.5727         calculate D2E/DX2 analytically  !
 ! A17   A(2,4,5)              122.6503         calculate D2E/DX2 analytically  !
 ! A18   A(2,4,15)             112.7361         calculate D2E/DX2 analytically  !
 ! A19   A(3,4,5)              121.4961         calculate D2E/DX2 analytically  !
 ! A20   A(3,4,15)             116.8822         calculate D2E/DX2 analytically  !
 ! A21   A(5,4,15)             113.2289         calculate D2E/DX2 analytically  !
 ! A22   A(4,5,6)              120.7556         calculate D2E/DX2 analytically  !
 ! A23   A(4,5,7)              115.8038         calculate D2E/DX2 analytically  !
 ! A24   A(4,5,16)             115.7786         calculate D2E/DX2 analytically  !
 ! A25   A(6,5,16)             118.3873         calculate D2E/DX2 analytically  !
 ! A26   A(7,5,16)             114.4011         calculate D2E/DX2 analytically  !
 ! A27   A(5,6,17)             119.5808         calculate D2E/DX2 analytically  !
 ! A28   A(5,6,18)             119.6817         calculate D2E/DX2 analytically  !
 ! A29   A(7,6,17)             115.4499         calculate D2E/DX2 analytically  !
 ! A30   A(7,6,18)             115.6984         calculate D2E/DX2 analytically  !
 ! A31   A(17,6,18)            115.0725         calculate D2E/DX2 analytically  !
 ! A32   A(2,8,9)              125.419          calculate D2E/DX2 analytically  !
 ! A33   A(2,8,19)             114.1271         calculate D2E/DX2 analytically  !
 ! A34   A(9,8,19)             120.4538         calculate D2E/DX2 analytically  !
 ! D1    D(10,1,2,3)           154.6523         calculate D2E/DX2 analytically  !
 ! D2    D(10,1,2,4)            86.8909         calculate D2E/DX2 analytically  !
 ! D3    D(10,1,2,8)           -58.1323         calculate D2E/DX2 analytically  !
 ! D4    D(11,1,2,3)           -84.9015         calculate D2E/DX2 analytically  !
 ! D5    D(11,1,2,4)          -152.6629         calculate D2E/DX2 analytically  !
 ! D6    D(11,1,2,8)            62.3139         calculate D2E/DX2 analytically  !
 ! D7    D(12,1,2,3)            34.8265         calculate D2E/DX2 analytically  !
 ! D8    D(12,1,2,4)           -32.9349         calculate D2E/DX2 analytically  !
 ! D9    D(12,1,2,8)          -177.9581         calculate D2E/DX2 analytically  !
 ! D10   D(1,2,3,13)             3.6205         calculate D2E/DX2 analytically  !
 ! D11   D(1,2,3,14)           145.3076         calculate D2E/DX2 analytically  !
 ! D12   D(8,2,3,13)          -143.2719         calculate D2E/DX2 analytically  !
 ! D13   D(8,2,3,14)            -1.5848         calculate D2E/DX2 analytically  !
 ! D14   D(1,2,4,5)           -139.8479         calculate D2E/DX2 analytically  !
 ! D15   D(1,2,4,15)             1.0847         calculate D2E/DX2 analytically  !
 ! D16   D(8,2,4,5)              4.5259         calculate D2E/DX2 analytically  !
 ! D17   D(8,2,4,15)           145.4585         calculate D2E/DX2 analytically  !
 ! D18   D(1,2,8,9)           -166.5257         calculate D2E/DX2 analytically  !
 ! D19   D(1,2,8,19)            13.5807         calculate D2E/DX2 analytically  !
 ! D20   D(3,2,8,9)            -18.0525         calculate D2E/DX2 analytically  !
 ! D21   D(3,2,8,19)           162.0539         calculate D2E/DX2 analytically  !
 ! D22   D(4,2,8,9)             48.2407         calculate D2E/DX2 analytically  !
 ! D23   D(4,2,8,19)          -131.6529         calculate D2E/DX2 analytically  !
 ! D24   D(13,3,4,5)           140.4349         calculate D2E/DX2 analytically  !
 ! D25   D(13,3,4,15)           -5.5813         calculate D2E/DX2 analytically  !
 ! D26   D(14,3,4,5)            -6.327          calculate D2E/DX2 analytically  !
 ! D27   D(14,3,4,15)         -152.3433         calculate D2E/DX2 analytically  !
 ! D28   D(2,4,5,6)            166.7579         calculate D2E/DX2 analytically  !
 ! D29   D(2,4,5,7)             99.1465         calculate D2E/DX2 analytically  !
 ! D30   D(2,4,5,16)           -38.8498         calculate D2E/DX2 analytically  !
 ! D31   D(3,4,5,6)           -121.1481         calculate D2E/DX2 analytically  !
 ! D32   D(3,4,5,7)            171.2405         calculate D2E/DX2 analytically  !
 ! D33   D(3,4,5,16)            33.2442         calculate D2E/DX2 analytically  !
 ! D34   D(15,4,5,6)            25.9954         calculate D2E/DX2 analytically  !
 ! D35   D(15,4,5,7)           -41.6159         calculate D2E/DX2 analytically  !
 ! D36   D(15,4,5,16)         -179.6122         calculate D2E/DX2 analytically  !
 ! D37   D(4,5,6,17)             0.354          calculate D2E/DX2 analytically  !
 ! D38   D(4,5,6,18)           152.5322         calculate D2E/DX2 analytically  !
 ! D39   D(16,5,6,17)         -153.3896         calculate D2E/DX2 analytically  !
 ! D40   D(16,5,6,18)           -1.2114         calculate D2E/DX2 analytically  !
 --------------------------------------------------------------------------------
 Trust Radius=3.00D-01 FncErr=1.00D-07 GrdErr=1.00D-07
 Number of steps in this run=      2 maximum allowed number of steps=      2.
 GradGradGradGradGradGradGradGradGradGradGradGradGradGradGradGradGradGrad

                          Input orientation:                          
 ---------------------------------------------------------------------
 Center     Atomic      Atomic             Coordinates (Angstroms)
 Number     Number       Type             X           Y           Z
 ---------------------------------------------------------------------
      1          6           0        0.919047   -1.966260    1.446580
      2          6           0        2.351298   -1.966206    0.949401
      3          6           0        2.666189   -2.427361   -0.461104
      4          6           0        3.017875   -3.333133    0.675732
      5          6           0        4.435792   -3.621600    1.031285
      6          6           0        4.946731   -4.999051    1.024606
      7          8           0        4.638476   -4.344026    2.254396
      8          6           0        3.216268   -0.885918    1.499946
      9          8           0        4.301454   -0.569053    1.069721
     10          1           0        0.876530   -2.051379    2.538034
     11          1           0        0.397217   -1.046343    1.159840
     12          1           0        0.359636   -2.806755    1.026824
     13          1           0        1.829260   -2.691199   -1.098146
     14          1           0        3.481265   -1.905029   -0.951036
     15          1           0        2.350440   -4.170656    0.861420
     16          1           0        5.138976   -2.808677    0.867991
     17          1           0        4.281956   -5.818154    0.750790
     18          1           0        6.004438   -5.181112    0.838595
     19          1           0        2.782481   -0.359609    2.379837
 ---------------------------------------------------------------------
                    Distance matrix (angstroms):
                    1          2          3          4          5
     1  C    0.000000
     2  C    1.516090   0.000000
     3  C    2.627618   1.517019   0.000000
     4  C    2.620616   1.545221   1.495493   0.000000
     5  C    3.908979   2.663110   2.604789   1.490007   0.000000
     6  C    5.059459   3.992503   3.744569   2.572447   1.469174
     7  O    4.487816   3.547989   3.864901   2.477989   1.434915
     8  C    2.539136   1.489394   2.554281   2.589894   3.031640
     9  O    3.678979   2.402004   2.910469   3.072936   3.055743
    10  H    1.095593   2.169320   3.512702   3.113908   4.171838
    11  H    1.095798   2.169991   3.111736   3.511640   4.791509
    12  H    1.093420   2.163153   2.770930   2.732503   4.156806
    13  H    2.798152   2.233962   1.084382   2.229693   3.492010
    14  H    3.509597   2.211838   1.084994   2.213726   2.790579
    15  H    2.692705   2.206205   2.210847   1.086920   2.163102
    16  H    4.341915   2.913337   2.833120   2.193419   1.087188
    17  H    5.160462   4.313281   3.946754   2.789062   2.219727
    18  H    6.046993   4.867580   4.518437   3.515837   2.220328
    19  H    2.631479   2.193905   3.515689   3.435292   3.897771
                    6          7          8          9         10
     6  C    0.000000
     7  O    1.427046   0.000000
     8  C    4.487573   3.814496   0.000000
     9  O    4.476974   3.970826   1.209597   0.000000
    10  H    5.248407   4.414626   2.812526   4.010404   0.000000
    11  H    6.028289   5.482795   2.844021   3.934335   1.771795
    12  H    5.084054   4.709417   3.474738   4.532888   1.766785
    13  H    4.421639   4.675796   3.454405   3.913425   3.812987
    14  H    3.952686   4.190780   2.667606   2.557538   4.356567
    15  H    2.730128   2.684315   3.456426   4.101389   3.078113
    16  H    2.204365   2.128360   2.791625   2.399594   4.640149
    17  H    1.089876   2.135647   5.101360   5.258817   5.383286
    18  H    1.089261   2.138003   5.163329   4.921855   6.243298
    19  H    5.295758   4.397275   1.113275   2.016817   2.553382
                   11         12         13         14         15
    11  H    0.000000
    12  H    1.765829   0.000000
    13  H    3.139235   2.586241   0.000000
    14  H    3.834643   3.803893   1.835436   0.000000
    15  H    3.696683   2.418860   2.510044   3.113973   0.000000
    16  H    5.067077   4.781978   3.851457   2.621725   3.103379
    17  H    6.166741   4.952708   4.383165   4.341643   2.541111
    18  H    6.974270   6.126728   5.232853   4.505763   3.791206
    19  H    2.765769   3.699911   4.294335   3.737825   4.125085
                   16         17         18         19
    16  H    0.000000
    17  H    3.131321   0.000000
    18  H    2.525537   1.838607   0.000000
    19  H    3.719768   5.890495   6.000277   0.000000
 Stoichiometry    C7H10O2
 Framework group  C1[X(C7H10O2)]
 Deg. of freedom    51
 Full point group                 C1      NOp   1
 Largest Abelian subgroup         C1      NOp   1
 Largest concise Abelian subgroup C1      NOp   1
                         Standard orientation:                         
 ---------------------------------------------------------------------
 Center     Atomic      Atomic             Coordinates (Angstroms)
 Number     Number       Type             X           Y           Z
 ---------------------------------------------------------------------
      1          6           0        2.080431   -1.336913   -0.718524
      2          6           0        1.207804   -0.314658   -0.017063
      3          6           0        0.751087   -0.556102    1.409282
      4          6           0       -0.248819   -0.714566    0.308564
      5          6           0       -1.394045    0.226309    0.155818
      6          6           0       -2.778765   -0.263119    0.194332
      7          8           0       -2.164272    0.082783   -1.046318
      8          6           0        1.454105    1.103183   -0.400938
      9          8           0        1.040817    2.072278    0.193345
     10          1           0        1.965826   -1.278564   -1.806543
     11          1           0        3.139867   -1.185913   -0.482799
[...]
 01969520,-0.07766646,0.00626816,-0.05369739,0.56994192,0.00404664,-0.0
 0211478,-0.00171658,0.04048167,-0.13100915,-0.04278130,0.00615907,-0.1
 0391865,0.12264479,0.06091360,0.56582186,0.00468802,-0.00895980,-0.000
 95300,0.00144800,0.01372073,-0.00913652,-0.02710321,0.07131614,-0.1377
 7369,0.04853767,-0.13802591,0.29709264,-0.00029049,-0.00040536,-0.0004
 2311,-0.01047294,0.00763442,-0.00407463,0.00167425,0.00770621,-0.00031
 304,-0.22502455,0.00430233,-0.02227679,0.56876630,0.00030557,-0.003293
 66,0.00184696,0.02190227,-0.01088014,0.00366063,0.00711503,-0.00667025
 ,0.00225817,0.00986768,-0.08073394,0.00272719,0.03942052,0.65110740,0.
 00151758,-0.00454843,0.00177200,0.01556256,0.00116857,-0.00077104,-0.0
 2914176,0.00617891,-0.00958869,-0.02670597,0.00516596,-0.06301097,0.02
 827967,-0.10276476,0.27548208,-0.00029033,0.00147453,-0.00079655,-0.00
 378503,0.00019882,0.00031115,0.00220536,-0.00068278,0.00000154,-0.0117
 4067,0.02755262,0.01572733,-0.08233083,0.07378051,-0.01527727,0.638515
 93,0.00004614,0.00033204,-0.00000811,-0.00205288,0.00330618,0.00085011
 ,-0.00025263,-0.00097672,0.00088459,0.00601534,-0.00625367,0.00046363,
 0.07093266,-0.26516553,0.02588533,0.00598077,0.59875678,-0.00006398,-0
 .00011768,0.00017598,0.00097429,-0.00261129,-0.00085815,-0.00079153,0.
 00057278,-0.00078114,-0.00625554,0.00983381,-0.00242081,0.00787423,-0.
 02721085,0.01491749,-0.02769110,0.12700135,0.27666707,0.00036699,-0.00
 060394,0.00040723,0.00356704,0.00063383,0.00088285,-0.00610776,-0.0010
 0632,-0.00169711,0.00125685,0.01210758,-0.03949294,-0.05943880,-0.0045
 6087,-0.00871260,-0.06660466,0.00516467,0.02750645,0.10667840,-0.00009
 809,0.00018293,-0.00009638,-0.00217804,0.00159078,0.00013475,0.0031368
 0,0.00264717,0.00037306,0.00818689,-0.00857448,0.01778308,-0.00331574,
 -0.07561830,0.05609367,0.00333192,-0.06389200,-0.05996166,-0.02729853,
 0.16590432,0.00007059,0.00081858,-0.00037989,-0.00094892,0.00280793,0.
 00264546,-0.00146337,-0.00432410,0.00213734,-0.00698644,0.00895534,-0.
 01760421,-0.02403290,0.09759553,-0.16689081,0.04553251,-0.10203674,-0.
 18761486,-0.01760772,0.00124391,0.39804366,-0.02536233,-0.02482338,-0.
 01041994,-0.11851950,-0.01908717,-0.00625805,0.00712822,-0.00770536,-0
 .00452031,0.01725159,-0.00102430,-0.00724395,0.00441962,0.00661040,0.0
 0128448,-0.00241138,-0.00167862,0.00106815,-0.00181868,-0.00106480,-0.
 00215820,0.82065082,-0.00439782,0.00128442,0.00523528,-0.05203103,-0.1
 2968919,-0.03674441,0.01265175,-0.01133981,-0.00511488,-0.00781169,-0.
 02878013,-0.02269793,0.00375834,0.00171203,0.00197075,-0.00218767,-0.0
 0062811,0.00040861,-0.00064576,-0.00040742,-0.00101941,0.16810129,0.41
 183119,0.00548318,0.01080783,0.00593785,-0.02717397,-0.04781001,-0.103
 50645,-0.01678029,-0.03156105,-0.01862541,0.00945176,0.00595234,-0.007
 49723,0.00018130,-0.00095824,0.00252458,-0.00014761,-0.00011205,0.0005
 1700,0.00007717,0.00006802,-0.00140748,-0.24953152,0.10062722,0.488589
 11,0.00171644,-0.00419975,-0.00242189,-0.03545875,-0.04594154,-0.00499
 210,-0.00546371,0.00821044,0.00453073,-0.00878948,0.00505708,0.0090526
 4,-0.00439797,-0.00202242,-0.00005765,0.00202416,0.00105712,-0.0005507
 6,0.00132413,0.00094193,0.00078303,-0.61470104,-0.15292737,0.22607933,
 0.68577243,-0.00160812,-0.00472469,-0.00484253,-0.03958598,-0.00252668
 ,0.00705457,-0.00354520,0.00156131,0.00018665,0.00076060,0.00326452,0.
 00354225,0.00160976,-0.00029584,-0.00183471,-0.00049399,-0.00034532,0.
 00016799,-0.00006245,-0.00088304,0.00093817,-0.15806008,-0.12922375,0.
 04250640,0.19595271,0.11627319,-0.00132945,-0.00261398,0.00056524,-0.0
 0464420,0.00733515,0.01952926,0.00159085,0.00084014,0.00036664,0.00074
 576,-0.00443954,-0.00192441,0.00031435,0.00069537,-0.00027257,-0.00019
 112,0.00001924,0.00000269,-0.00031666,-0.00056791,0.00056100,0.2234457
 8,0.04211779,-0.17933302,-0.25843281,-0.04594070,0.16088961,-0.0469699
 5,-0.00017649,0.00476142,-0.00268082,-0.00113851,0.03418787,-0.0055237
 9,-0.00285075,0.00115403,0.00223557,-0.00057450,-0.00110666,0.00016493
 ,-0.00015302,0.00015582,0.00004718,-0.00004202,0.00005913,-0.00007078,
 0.00005599,-0.00029296,0.00118606,0.00140545,0.00143013,0.00004942,-0.
 00015170,-0.00063336,0.05211685,-0.00046569,-0.04897119,0.02118650,0.0
 0004405,-0.00072558,-0.00056889,0.00052926,0.00038093,-0.00111729,-0.0
 0068891,0.00069515,-0.00023163,0.00009210,0.00019492,-0.00001434,-0.00
 006363,0.00001673,-0.00004248,-0.00005129,-0.00003468,0.00012382,-0.00
 055055,0.00057796,0.00134894,0.00068909,-0.00009624,-0.00052193,-0.000
 04974,0.04751997,0.00550832,0.02069176,-0.30501190,0.00222254,0.000734
 62,-0.00949251,0.00155348,0.00114434,0.00090111,0.00027647,-0.00056774
 ,0.00011634,-0.00020138,-0.00006548,-0.00025216,0.00002200,0.00005993,
 -0.00005582,0.00003667,-0.00008406,0.00030979,-0.00093884,-0.00190443,
 -0.00079202,0.00033287,0.00045247,0.00055808,-0.00906351,-0.02252040,0
 .33266410,-0.10141876,0.10064321,-0.03242945,-0.01731285,0.02623727,-0
 .00701994,0.00199037,-0.00035972,-0.00042682,-0.00538493,-0.00207495,-
 0.00046035,0.00038483,0.00146955,0.00167085,-0.00064520,-0.00022143,0.
 00013718,0.00020334,-0.00006324,-0.00037768,0.00129042,0.00230426,0.00
 099534,-0.00032981,-0.00065386,-0.00002563,-0.00003125,-0.00076846,-0.
 00028512,0.11334522,0.10063660,-0.23235520,0.05910454,-0.00060281,0.00
 283387,-0.00041268,0.00064071,-0.00029139,-0.00069904,-0.00033516,0.00
 034652,0.00008608,-0.00003056,0.00045492,-0.00030462,-0.00007787,0.000
 05960,0.00001718,0.00000020,-0.00003319,-0.00001289,-0.00070983,-0.000
 30884,-0.00068886,0.00070525,0.00038779,-0.00005909,-0.00002468,-0.001
 74478,0.00003208,-0.11221909,0.25067684,-0.03272665,0.05953804,-0.0668
 0999,0.00546256,-0.01042510,0.00259748,-0.00121272,-0.00005029,0.00140
 359,0.00341432,-0.00068856,0.00046838,0.00008706,-0.00043723,-0.000907
 09,0.00024891,0.00002739,-0.00002864,-0.00018323,-0.00000488,0.0001720
 1,-0.00069425,0.00010593,0.00067669,0.00034811,0.00000077,-0.00038612,
 -0.01474262,0.02824261,-0.00793663,0.03342352,-0.06519796,0.06758256,-
 0.11228731,-0.10182360,-0.05109901,-0.01817062,-0.02311882,-0.01227101
 ,0.00115361,-0.00099918,-0.00122441,0.00119205,-0.00208818,-0.00132392
 ,0.00005500,0.00050573,-0.00030798,-0.00007052,0.00001816,0.00003765,0
 .00003994,-0.00002802,0.00004310,-0.00466816,0.00263765,0.00416122,-0.
 00137642,-0.00211921,-0.00074611,-0.00001234,0.00126370,0.00012981,0.0
 0794743,0.01161248,0.00673394,0.12526603,-0.10485398,-0.20512359,-0.08
 066109,0.00133077,0.00010531,0.00054146,0.00009263,0.00006229,-0.00028
 812,0.00123877,0.00054400,-0.00010939,-0.00003063,0.00022853,-0.000049
 66,-0.00006050,-0.00002634,0.00003738,0.00000439,-0.00002721,-0.000039
 80,0.00047063,0.00035534,0.00000597,0.00003129,0.00025009,0.00002628,0
 .00250355,0.00258080,0.00175063,-0.01390169,-0.02040746,-0.01122409,0.
 11275499,0.22068908,-0.05321795,-0.08106082,-0.08602153,0.00743497,0.0
 0887991,0.00315491,0.00031233,0.00081737,0.00088308,-0.00031488,0.0001
 3749,0.00063692,0.00001211,0.00008884,-0.00002202,-0.00000937,-0.00003
 733,0.00001479,0.00001720,0.00003204,-0.00005592,0.00168831,-0.0015919
 1,-0.00135494,0.00039183,0.00101431,0.00051365,-0.01616198,-0.02565666
 ,-0.01159001,0.00527727,0.00774146,0.00316057,0.05500669,0.08871286,0.
 09061754,0.00052950,0.00003206,-0.00046936,0.01047500,0.00499260,0.009
 21893,-0.22441028,-0.06301219,-0.13186882,-0.00737431,-0.00327691,-0.0
 0259551,0.00120226,0.00002916,-0.00150873,0.00005828,-0.00022844,-0.00
 015261,-0.00066740,0.00052980,-0.00041664,-0.00269323,-0.00205050,0.00
 241017,0.00161236,-0.00009233,-0.00148416,0.00011880,-0.00000446,-0.00
 015225,0.00007456,0.00024816,-0.00014679,0.00017632,-0.00013531,0.0000
 9747,0.23194573,-0.00045829,0.00080917,0.00257382,-0.01634115,-0.00660
 902,-0.00873296,-0.06303010,-0.05624969,-0.03939924,0.02393548,0.00663
 046,0.01391535,-0.00283425,0.00010331,0.00400544,-0.00018766,0.0003115
 7,0.00020078,0.00187891,-0.00122207,0.00116513,0.00073627,0.00141923,-
 0.00287632,-0.00037882,-0.00034774,-0.00048146,-0.00023660,0.00004987,
 0.00032108,0.00013898,-0.00015745,-0.00012615,0.00040293,0.00020677,0.
 00014583,0.06429316,0.05842722,-0.00084679,-0.00149647,0.00245164,-0.0
 1657922,-0.00529402,-0.01560323,-0.12850600,-0.03860608,-0.14040030,-0
 .00772738,-0.00320307,-0.00924446,0.00177087,-0.00063337,-0.00117458,-
 0.00004423,-0.00001500,-0.00006381,-0.00038592,0.00016649,0.00007421,0
 .00280605,0.00451939,-0.00230815,-0.00152808,-0.00032295,0.00162429,-0
 .00013533,0.00030022,0.00040968,0.00069121,-0.00005847,-0.00024752,0.0
 0078491,0.00064532,-0.00023152,0.13919520,0.04155897,0.15295698,0.0004
 3911,-0.00044129,0.00229742,-0.00772888,-0.00359109,0.00418330,-0.2138
 0344,-0.11034088,0.09493099,0.01180717,0.00696235,-0.00507817,0.000706
 75,0.00095674,0.00036633,0.00000279,0.00026306,-0.00002439,-0.00021083
 ,-0.00038593,0.00047279,-0.00088615,-0.00146125,-0.00131220,0.00062912
 ,0.00004769,-0.00126028,-0.00062392,0.00022580,0.00024401,0.00002158,-
 0.00000159,-0.00003481,0.00027806,0.00011866,-0.00018851,-0.01215879,-
 0.00814770,0.01111554,0.22186529,-0.00065139,0.00015033,-0.00435760,0.
 01646079,0.00784523,-0.00718762,-0.11080582,-0.10511967,0.06523764,-0.
 02027580,-0.01268082,0.00992089,-0.00101780,0.00057736,-0.00252204,0.0
 0025645,-0.00026353,0.00002235,-0.00014566,0.00051995,-0.00053693,0.00
 144369,0.00107487,0.00131044,-0.00063476,-0.00107924,0.00035341,0.0013
 7954,-0.00018119,-0.00071059,-0.00006257,0.00000993,0.00014296,-0.0000
 7409,-0.00001160,0.00000183,-0.00238799,-0.00256760,0.00271869,0.11511
 038,0.11106200,-0.00154953,0.00089922,-0.00317959,0.01400113,0.0084778
 8,-0.01235088,0.09093471,0.06239389,-0.10232454,0.00891375,0.00505609,
 -0.00784674,0.00107656,0.00110601,0.00119087,-0.00041869,0.00004061,-0
 .00004440,-0.00000698,-0.00034524,0.00024305,0.00535387,0.00134106,0.0
 0070284,-0.00223682,0.00026402,0.00229291,0.00124691,-0.00004718,-0.00
 013306,-0.00002909,-0.00009339,0.00020960,0.00015030,0.00016112,-0.000
 05908,-0.01347472,-0.00915153,0.01051153,-0.10296812,-0.06983694,0.112
 60435,0.00104269,0.00114865,0.00071342,0.00439916,0.01199956,-0.001252
 13,0.00214496,0.00521929,-0.00143454,-0.15728603,-0.13609807,0.0270827
 1,-0.01988300,-0.02471454,0.00607037,0.00024257,-0.00174462,0.00105508
 ,0.00331062,0.00070275,-0.00050573,-0.00281192,-0.00007730,-0.00149451
 ,0.00191572,0.00016438,0.00010040,-0.00003782,-0.00002761,0.00026732,0
 .00001838,-0.00007952,-0.00001639,-0.00012676,0.00017654,-0.00036723,0
 .00097651,-0.00001718,-0.00040600,-0.00018632,0.00083846,-0.00000046,0
 .17037245,-0.00243954,0.00169401,-0.00121562,-0.01083560,-0.02228083,0
 .00345582,-0.00186688,-0.00622469,0.00033226,-0.13501233,-0.20808395,0
 .03953630,0.00528176,0.00442663,-0.00055288,0.00054876,0.00140947,-0.0
 0011477,-0.00044123,0.00046908,-0.00076336,0.00407206,0.00029384,0.003
 35946,-0.00219340,-0.00008200,-0.00026202,0.00058463,-0.00001866,-0.00
 021010,-0.00017137,0.00056354,0.00030126,0.00121031,0.00049854,0.00024
 325,0.00005438,0.00059673,0.00047057,0.00101609,-0.00014108,-0.0006797
 6,0.13897843,0.22670482,-0.00105144,0.00201366,0.00042377,-0.01030144,
 -0.01767351,0.00014131,0.01967646,0.02246432,-0.00537851,0.02603132,0.
 04051986,-0.04520551,-0.00572151,-0.00503675,0.00045674,-0.00006359,0.
 00051522,0.00089663,0.00135184,-0.00122467,0.00049547,0.00408874,-0.00
 059408,0.00173792,-0.00188179,-0.00011395,0.00072068,-0.00015974,-0.00
 007510,-0.00014848,-0.00040797,0.00023661,0.00009227,0.00012082,0.0002
 6413,0.00009352,0.00126139,-0.00271357,0.00110971,-0.00285554,0.004762
 11,-0.00170694,-0.02836000,-0.04351242,0.04697424,-0.00015837,0.000271
 86,0.00007518,0.00075317,0.00005995,0.00122357,0.00082350,-0.00120587,
 0.00064497,-0.01824088,-0.02214384,0.00290275,-0.17654351,-0.13672967,
 0.02032837,0.00754080,0.01126690,-0.00224055,0.00603572,0.00388033,0.0
 0149791,-0.00359022,-0.00103646,0.00042314,0.00288066,-0.00074873,-0.0
 0031561,-0.00001754,-0.00003164,-0.00000261,-0.00006750,0.00009668,0.0
 0004382,0.00025190,0.00006192,0.00002891,0.00014740,0.00027636,-0.0001
 4049,0.00017150,0.00056203,-0.00057678,-0.00459380,0.00158229,-0.00141
 417,0.18429190,0.00009488,-0.00008284,-0.00017153,-0.00050678,-0.00081
 135,-0.00049230,-0.00049770,0.00079446,-0.00039380,0.00537898,0.006392
 30,-0.00102532,-0.13944583,-0.19883600,0.02768700,-0.01546304,-0.01592
 051,0.00623319,0.00283310,-0.00748617,0.00508849,0.00323185,0.00060908
 ,-0.00006034,-0.00084398,-0.00368488,-0.00023336,0.00003788,0.00001950
 ,0.00001299,-0.00001113,-0.00003748,-0.00000202,-0.00010263,-0.0000516
 8,0.00000413,0.00005129,-0.00002810,-0.00012966,-0.00025935,0.00027266
 ,0.00001514,0.00224550,0.00001074,0.00018033,0.14251904,0.21862133,-0.
 00002606,0.00002289,-0.00007730,-0.00011321,0.00026785,-0.00014658,0.0
 0029837,-0.00044784,0.00082213,-0.00388681,-0.00621074,0.00358408,0.01
 967933,0.01944846,-0.04569938,-0.01252140,-0.00914294,-0.00351606,0.01
 825365,0.03381338,-0.01019036,0.00081574,0.00001095,-0.00023153,-0.000
 43251,0.00023056,-0.00024536,0.00001769,0.00001658,0.00001156,-0.00001
 277,0.00003566,0.00003018,0.00005238,0.00000201,0.00000586,0.00024284,
 -0.00016442,-0.00002404,-0.00000063,0.00016775,-0.00022358,-0.00181341
 ,0.00056031,0.00036124,-0.02163679,-0.03773407,0.05325214,-0.00000277,
 -0.00001935,0.00002089,0.00002385,-0.00026372,-0.00008009,-0.00016326,
 0.00009861,0.00001083,0.00106073,0.00061852,-0.00061407,0.00556566,0.0
 0911112,0.00323943,-0.16643413,-0.12937897,-0.03624602,0.00839176,0.00
 647279,0.00012794,0.00025581,0.00009341,0.00002407,-0.00017085,0.00005
 736,0.00002368,0.00000027,0.00000210,0.00000081,0.00001342,-0.00000485
 ,-0.00000602,-0.00001140,0.00000558,-0.00000453,0.00000791,-0.00000039
 ,0.00000083,0.00000677,-0.00004530,0.00001075,0.00002077,-0.00017653,0
 .00020060,-0.00038545,0.00093422,0.00076786,0.16557299,0.00000495,-0.0
 0004057,0.00004880,0.00020112,0.00062738,0.00011815,0.00042411,0.00002
 748,0.00019346,-0.00201722,0.00080886,0.00058114,-0.01689342,-0.015382
 15,-0.00884650,-0.12766836,-0.19578772,-0.04587470,0.00440316,-0.00772
 423,-0.00601785,-0.00075115,-0.00019306,-0.00005324,0.00065074,-0.0001
 7088,-0.00004787,-0.00002388,-0.00000902,0.00000638,0.00001637,-0.0000
 0420,-0.00000375,0.00002971,-0.00000021,0.00001391,0.00009834,-0.00014
 355,0.00003294,-0.00005819,0.00008977,-0.00005477,0.00109957,0.0001657
 1,-0.00017528,0.00142777,-0.00077675,-0.00204008,0.13424803,0.21340452
 ,-0.00001482,-0.00004420,-0.00000137,-0.00001817,-0.00020620,-0.000143
 90,0.00020177,0.00019801,0.00001069,0.00035418,-0.00131969,0.00032985,
 0.01261405,0.00987762,-0.00322103,-0.03552740,-0.04009559,-0.05221475,
 -0.01610704,-0.03369300,-0.01234892,0.00034996,0.00021634,-0.00007315,
 -0.00031744,0.00012745,0.00008941,0.00000010,-0.00000064,-0.00001098,0
 .00002734,0.00000885,-0.00000177,0.00000733,0.00000561,0.00001359,0.00
 001889,-0.00006095,0.00002035,-0.00000377,0.00003037,0.00001660,-0.000
 04331,-0.00025366,-0.00003474,-0.00155625,0.00170120,0.00211983,0.0384
 4300,0.05994883,0.06124274,0.00001489,0.00008679,-0.00005935,0.0002332
 4,0.00006869,0.00027095,-0.00001066,-0.00022188,-0.00007657,0.00003126
 ,0.00039579,0.00011987,-0.00435181,-0.00300315,0.00279542,-0.31628065,
 0.03487074,0.03532053,0.00358212,0.00709398,0.00629030,-0.00041750,-0.
 00031509,-0.00016866,0.00028368,0.00008724,-0.00004480,-0.00000026,-0.
 00001402,0.00000755,-0.00005886,0.00000875,0.00000747,0.00000917,-0.00
 001713,0.00000791,-0.00002599,0.00005818,-0.00004198,-0.00002039,0.000
 05872,-0.00003013,0.00028843,0.00004196,-0.00003304,0.00050500,0.00010
 216,0.00022760,-0.01374144,0.00478208,0.00159168,0.32994283,0.00001581
 ,-0.00040067,0.00022777,0.00087623,-0.00034799,-0.00045979,-0.00019820
 ,0.00043591,0.00010433,-0.00080607,-0.00245506,-0.00210847,0.02444331,
 -0.00174170,-0.00660232,0.03353567,-0.05506455,-0.00857279,0.00759704,
 -0.00525408,-0.00426283,0.00074033,0.00071677,0.00017461,-0.00047769,-
 0.00010262,0.00008475,-0.00000496,0.00001352,-0.00002088,0.00019860,0.
 00000325,-0.00005681,0.00001628,0.00002612,0.00000761,0.00007007,-0.00
 012018,0.00005006,0.00001013,-0.00006913,0.00007915,0.00027649,0.00001
 764,-0.00011191,-0.00043485,0.00094989,0.00130417,-0.02175238,0.005065
 45,0.00358232,-0.04409617,0.05835335,-0.00003182,0.00024557,-0.0001753
 8,-0.00074199,0.00088438,0.00020824,0.00038261,-0.00011139,0.00030631,
 -0.00017647,0.00215705,0.00209395,-0.01494440,-0.00297869,-0.00425740,
 0.03105697,-0.00436288,-0.04550325,0.03575905,-0.01351533,-0.00891696,
 -0.00067551,-0.00043797,-0.00018200,0.00044804,-0.00001216,-0.00009420
 ,-0.00001750,0.00000113,0.00002131,-0.00012620,-0.00001661,0.00005001,
 -0.00000997,-0.00002192,0.00000304,0.00003598,-0.00006781,0.00002856,-
 0.00002584,0.00008618,-0.00005513,0.00016779,0.00002941,-0.00007595,0.
 00103715,-0.00072420,0.00008501,-0.00590284,0.00219399,0.00419655,-0.0
 4623843,0.01663217,0.05223755,0.00116400,0.00019960,-0.00068194,0.0082
 9936,-0.01112760,-0.00468212,0.00074159,-0.00264101,-0.00091663,-0.001
 55083,-0.00131650,-0.00226341,-0.00020568,0.00010941,0.00044108,-0.000
 04366,-0.00001595,-0.00001619,0.00016201,0.00009922,-0.00002762,-0.074
 30242,0.03398979,0.04589196,-0.02752007,0.00844191,0.04320338,0.000049
 38,-0.00013009,0.00004186,-0.00004038,0.00013714,-0.00000621,0.0003540
 5,0.00020953,-0.00001053,0.00000536,-0.00008816,-0.00002320,-0.0003094
 1,-0.00000886,-0.00039666,0.00019339,-0.00023378,-0.00048095,0.0001957
 5,-0.00029846,0.00008814,-0.00001063,0.00002627,-0.00002009,0.00001694
 ,-0.00000964,0.00000337,0.09280126,0.00127870,0.00015759,-0.00047577,0
 .00313816,-0.00010542,-0.02674514,-0.00417209,-0.00231472,-0.00015953,
 0.00164080,0.00010095,-0.00043433,-0.00120782,-0.00018760,-0.00011538,
 0.00022547,0.00013163,0.00001081,0.00019318,-0.00015737,0.00027702,0.0
 3004870,-0.11930443,-0.08204113,-0.00367590,0.02182602,0.00369571,-0.0
 0054017,-0.00026801,0.00087740,-0.00050073,0.00000373,-0.00014211,-0.0
 0009821,0.00010124,0.00050587,0.00078913,-0.00110894,-0.00070355,-0.00
 002363,0.00051176,0.00037463,-0.00009078,-0.00001953,0.00027501,0.0003
 2592,0.00004580,-0.00014048,-0.00000024,0.00004317,-0.00002267,0.00001
 235,-0.00002593,0.00001907,-0.02734282,0.10057005,0.00090109,0.0007217
 5,0.00012369,0.01082779,-0.01310068,-0.00070228,0.00075773,-0.00148735
 ,0.00048907,-0.00318580,-0.00146959,-0.00170460,0.00009823,0.00078058,
 -0.00027601,-0.00021209,0.00006324,-0.00008996,0.00021810,-0.00021528,
 0.00072741,0.04153950,-0.08644832,-0.18537460,0.03088525,-0.00341861,-
 0.00545779,-0.00069943,-0.00042326,0.00043159,-0.00062170,0.00028115,-
 0.00012557,-0.00024572,0.00024129,0.00023756,-0.00021129,-0.00011200,0
 .00011067,0.00014188,0.00039710,0.00015221,0.00023662,-0.00072404,-0.0
 0095335,-0.00032251,0.00004414,0.00008218,-0.00001713,-0.00002354,0.00
 001100,0.00005371,-0.00005115,0.00002972,-0.08014423,0.10494457,0.1922
 8906\\-0.00002799,-0.00000142,0.00000913,0.00002040,-0.00001947,0.0000
 0117,0.00001503,-0.00000124,0.00000933,-0.00002530,0.00002096,-0.00001
 169,0.00001414,0.00000368,-0.00000900,0.00000168,0.00000610,0.00000640
 ,0.00000034,-0.00001239,0.00000089,0.00002823,0.00001451,-0.00002422,-
 0.00003400,-0.00000962,0.00002289,0.00000260,-0.00000714,-0.00000678,0
 .00000163,-0.00000372,-0.00000185,0.00000583,-0.00000346,-0.00000964,0
 .00000245,0.00000276,-0.00000066,-0.00000032,0.00000794,-0.00000196,0.
 00000683,-0.00001048,-0.00000116,-0.00000334,0.00000589,0.00000360,0.0
 0000456,0.00000208,-0.00000260,0.00000429,0.00000412,0.00000284,-0.000
 01707,0.00000089,0.00001329\\\@


 There are more things in heaven and earth, Horatio,
 than are dreamt of in your philosophy.
                   -- Hamlet, Act I, Scene 5
 Job cpu time:       0 days  0 hours 37 minutes 56.2 seconds.
 File lengths (MBytes):  RWF=    152 Int=      0 D2E=      0 Chk=      8 Scr=      1
 Normal termination of Gaussian 09 at Mon Jan 27 17:05:47 2020.
