 Entering Gaussian System, Link 0=/home/puck/opt/gaussian_09/g09
 Input=dsC7O2H10nsd_1236.com
 Output=dsC7O2H10nsd_1236.log
 Initial command:
 /home/puck/opt/gaussian_09/l1.exe "/scratch/puck/g09_700ad893-d52d-416f-9b48-8f3820161e07/Gau-162487.inp" -scrdir="/scratch/puck/g09_700ad893-d52d-416f-9b48-8f3820161e07/"
 Entering Link 1 = /home/puck/opt/gaussian_09/l1.exe PID=    162488.
  
 Copyright (c) 1988,1990,1992,1993,1995,1998,2003,2009,2013,
            Gaussian, Inc.  All Rights Reserved.
  
 This is part of the Gaussian(R) 09 program.  It is based on
 the Gaussian(R) 03 system (copyright 2003, Gaussian, Inc.),
 the Gaussian(R) 98 system (copyright 1998, Gaussian, Inc.),
 the Gaussian(R) 94 system (copyright 1995, Gaussian, Inc.),
 the Gaussian 92(TM) system (copyright 1992, Gaussian, Inc.),
 the Gaussian 90(TM) system (copyright 1990, Gaussian, Inc.),
 the Gaussian 88(TM) system (copyright 1988, Gaussian, Inc.),
 the Gaussian 86(TM) system (copyright 1986, Carnegie Mellon
 University), and the Gaussian 82(TM) system (copyright 1983,
 Carnegie Mellon University). Gaussian is a federally registered
 trademark of Gaussian, Inc.
  
 This software contains proprietary and confidential information,
 including trade secrets, belonging to Gaussian, Inc.
  
 This software is provided under written license and may be
 used, copied, transmitted, or stored only in accord with that
 written license.
  
 The following legend is applicable only to US Government
 contracts under FAR:
  
                    RESTRICTED RIGHTS LEGEND
  
 Use, reproduction and disclosure by the US Government is
 subject to restrictions as set forth in subparagraphs (a)
 and (c) of the Commercial Computer Software - Restricted
 Rights clause in FAR 52.227-19.
  
 Gaussian, Inc.
 340 Quinnipiac St., Bldg. 40, Wallingford CT 06492
  
  
 ---------------------------------------------------------------
 Warning -- This program may not be used in any manner that
 competes with the business of Gaussian, Inc. or will provide
 assistance to any competitor of Gaussian, Inc.  The licensee
 of this program is prohibited from giving any competitor of
 Gaussian, Inc. access to this program.  By using this program,
 the user acknowledges that Gaussian, Inc. is engaged in the
 business of creating and licensing software in the field of
 computational chemistry and represents and warrants to the
 licensee that it is not a competitor of Gaussian, Inc. and that
 it will not use this program in any manner prohibited above.
 ---------------------------------------------------------------
  

 Cite this work as:
 Gaussian 09, Revision D.01,
 M. J. Frisch, G. W. Trucks, H. B. Schlegel, G. E. Scuseria, 
 M. A. Robb, J. R. Cheeseman, G. Scalmani, V. Barone, B. Mennucci, 
 G. A. Petersson, H. Nakatsuji, M. Caricato, X. Li, H. P. Hratchian, 
 A. F. Izmaylov, J. Bloino, G. Zheng, J. L. Sonnenberg, M. Hada, 
 M. Ehara, K. Toyota, R. Fukuda, J. Hasegawa, M. Ishida, T. Nakajima, 
 Y. Honda, O. Kitao, H. Nakai, T. Vreven, J. A. Montgomery, Jr., 
 J. E. Peralta, F. Ogliaro, M. Bearpark, J. J. Heyd, E. Brothers, 
 K. N. Kudin, V. N. Staroverov, T. Keith, R. Kobayashi, J. Normand, 
 K. Raghavachari, A. Rendell, J. C. Burant, S. S. Iyengar, J. Tomasi, 
 M. Cossi, N. Rega, J. M. Millam, M. Klene, J. E. Knox, J. B. Cross, 
 V. Bakken, C. Adamo, J. Jaramillo, R. Gomperts, R. E. Stratmann, 
 O. Yazyev, A. J. Austin, R. Cammi, C. Pomelli, J. W. Ochterski, 
 R. L. Martin, K. Morokuma, V. G. Zakrzewski, G. A. Voth, 
 P. Salvador, J. J. Dannenberg, S. Dapprich, A. D. Daniels, 
 O. Farkas, J. B. Foresman, J. V. Ortiz, J. Cioslowski, 
 and D. J. Fox, Gaussian, Inc., Wallingford CT, 2013.
 
 ******************************************
 Gaussian 09:  ES64L-G09RevD.01 24-Apr-2013
                27-Jan-2020 
 ******************************************
 -----------------------------
 # b3lyp 6-31G(2df,p) opt Freq
 -----------------------------
 1/14=-1,18=20,19=15,26=3,38=1/1,3;
 2/9=110,12=2,17=6,18=5,40=1/2;
 3/5=1,6=6,7=104,11=2,16=1,25=1,30=1,71=1,74=-5/1,2,3;
 4//1;
 5/5=2,38=5/2;
 6/7=2,8=2,9=2,10=2,28=1/1;
 7//1,2,3,16;
 1/14=-1,18=20,19=15,26=3/3(2);
 2/9=110/2;
 99//99;
 2/9=110/2;
 3/5=1,6=6,7=104,11=2,16=1,25=1,30=1,71=1,74=-5/1,2,3;
 4/5=5,16=3,69=1/1;
 5/5=2,38=5/2;
 7//1,2,3,16;
 1/14=-1,18=20,19=15,26=3/3(-5);
 2/9=110/2;
 6/7=2,8=2,9=2,10=2,19=2,28=1/1;
 99/9=1/99;
 -----
 titel
 -----
 Symbolic Z-matrix:
 Charge =  0 Multiplicity = 1
 C                     2.1451   -0.14603   1.32822 
 C                     1.36311  -0.03777   0.0042 
 C                    -0.06321  -0.60741   0.14379 
 C                     2.07904  -0.69535  -1.089 
 C                     2.66159  -1.25617  -1.9811 
 C                     3.39238  -1.89609  -3.05803 
 O                     2.67936  -3.09347  -3.46677 
 C                     3.25705  -3.77693  -4.46183 
 O                     4.28003  -3.48472  -5.01867 
 H                     2.24954  -1.19295   1.62904 
 H                     3.14685   0.28045   1.23081 
 H                     1.61698   0.38932   2.12357 
 H                     1.27466   1.02801  -0.24901 
 H                    -0.60362  -0.07799   0.93469 
 H                    -0.62273  -0.50255  -0.78918 
 H                    -0.02966  -1.67018   0.40195 
 H                     3.49525  -1.23754  -3.92718 
 H                     4.40413  -2.18083  -2.74988 
 H                     2.63795  -4.65836  -4.69 
 

 GradGradGradGradGradGradGradGradGradGradGradGradGradGradGradGradGradGrad
 Berny optimization.
 Initialization pass.
                           ----------------------------
                           !    Initial Parameters    !
                           ! (Angstroms and Degrees)  !
 --------------------------                            --------------------------
 ! Name  Definition              Value          Derivative Info.                !
 --------------------------------------------------------------------------------
 ! R1    R(1,2)                  1.5415         estimate D2E/DX2                !
 ! R2    R(1,10)                 1.0943         estimate D2E/DX2                !
 ! R3    R(1,11)                 1.0931         estimate D2E/DX2                !
 ! R4    R(1,12)                 1.0946         estimate D2E/DX2                !
 ! R5    R(2,3)                  1.5422         estimate D2E/DX2                !
 ! R6    R(2,4)                  1.4629         estimate D2E/DX2                !
 ! R7    R(2,13)                 1.099          estimate D2E/DX2                !
 ! R8    R(3,14)                 1.0945         estimate D2E/DX2                !
 ! R9    R(3,15)                 1.0929         estimate D2E/DX2                !
 ! R10   R(3,16)                 1.0942         estimate D2E/DX2                !
 ! R11   R(4,5)                  1.2041         estimate D2E/DX2                !
 ! R12   R(5,6)                  1.4503         estimate D2E/DX2                !
 ! R13   R(6,7)                  1.4523         estimate D2E/DX2                !
 ! R14   R(6,17)                 1.0953         estimate D2E/DX2                !
 ! R15   R(6,18)                 1.0953         estimate D2E/DX2                !
 ! R16   R(7,8)                  1.3383         estimate D2E/DX2                !
 ! R17   R(8,9)                  1.2008         estimate D2E/DX2                !
 ! R18   R(8,19)                 1.101          estimate D2E/DX2                !
 ! A1    A(2,1,10)             110.5932         estimate D2E/DX2                !
 ! A2    A(2,1,11)             111.1586         estimate D2E/DX2                !
 ! A3    A(2,1,12)             110.182          estimate D2E/DX2                !
 ! A4    A(10,1,11)            108.077          estimate D2E/DX2                !
 ! A5    A(10,1,12)            108.3139         estimate D2E/DX2                !
 ! A6    A(11,1,12)            108.427          estimate D2E/DX2                !
 ! A7    A(1,2,3)              111.4375         estimate D2E/DX2                !
 ! A8    A(1,2,4)              111.2243         estimate D2E/DX2                !
 ! A9    A(1,2,13)             107.8681         estimate D2E/DX2                !
 ! A10   A(3,2,4)              110.7462         estimate D2E/DX2                !
 ! A11   A(3,2,13)             107.7349         estimate D2E/DX2                !
 ! A12   A(4,2,13)             107.6459         estimate D2E/DX2                !
 ! A13   A(2,3,14)             110.0843         estimate D2E/DX2                !
 ! A14   A(2,3,15)             111.1479         estimate D2E/DX2                !
 ! A15   A(2,3,16)             110.5948         estimate D2E/DX2                !
 ! A16   A(14,3,15)            108.5229         estimate D2E/DX2                !
 ! A17   A(14,3,16)            108.3293         estimate D2E/DX2                !
 ! A18   A(15,3,16)            108.0769         estimate D2E/DX2                !
 ! A19   A(5,6,7)              108.9892         estimate D2E/DX2                !
 ! A20   A(5,6,17)             111.794          estimate D2E/DX2                !
 ! A21   A(5,6,18)             111.7925         estimate D2E/DX2                !
 ! A22   A(7,6,17)             108.5716         estimate D2E/DX2                !
 ! A23   A(7,6,18)             108.5639         estimate D2E/DX2                !
 ! A24   A(17,6,18)            107.0256         estimate D2E/DX2                !
 ! A25   A(6,7,8)              114.733          estimate D2E/DX2                !
 ! A26   A(7,8,9)              126.034          estimate D2E/DX2                !
 ! A27   A(7,8,19)             108.6753         estimate D2E/DX2                !
 ! A28   A(9,8,19)             125.2907         estimate D2E/DX2                !
 ! A29   L(2,4,5,15,-1)        179.6379         estimate D2E/DX2                !
 ! A30   L(4,5,6,11,-1)        178.9028         estimate D2E/DX2                !
 ! A31   L(2,4,5,15,-2)        181.2292         estimate D2E/DX2                !
 ! A32   L(4,5,6,11,-2)        182.3676         estimate D2E/DX2                !
 ! D1    D(10,1,2,3)            61.2921         estimate D2E/DX2                !
 ! D2    D(10,1,2,4)           -62.8149         estimate D2E/DX2                !
 ! D3    D(10,1,2,13)          179.3537         estimate D2E/DX2                !
 ! D4    D(11,1,2,3)          -178.6507         estimate D2E/DX2                !
 ! D5    D(11,1,2,4)            57.2423         estimate D2E/DX2                !
 ! D6    D(11,1,2,13)          -60.5891         estimate D2E/DX2                !
 ! D7    D(12,1,2,3)           -58.4266         estimate D2E/DX2                !
 ! D8    D(12,1,2,4)           177.4664         estimate D2E/DX2                !
 ! D9    D(12,1,2,13)           59.635          estimate D2E/DX2                !
 ! D10   D(1,2,3,14)            58.1176         estimate D2E/DX2                !
 ! D11   D(1,2,3,15)           178.3904         estimate D2E/DX2                !
 ! D12   D(1,2,3,16)           -61.5585         estimate D2E/DX2                !
 ! D13   D(4,2,3,14)          -177.506          estimate D2E/DX2                !
 ! D14   D(4,2,3,15)           -57.2332         estimate D2E/DX2                !
 ! D15   D(4,2,3,16)            62.8179         estimate D2E/DX2                !
 ! D16   D(13,2,3,14)          -60.0241         estimate D2E/DX2                !
 ! D17   D(13,2,3,15)           60.2487         estimate D2E/DX2                !
 ! D18   D(13,2,3,16)         -179.7002         estimate D2E/DX2                !
 ! D19   D(1,2,6,7)            110.7758         estimate D2E/DX2                !
 ! D20   D(1,2,6,17)          -128.8741         estimate D2E/DX2                !
 ! D21   D(1,2,6,18)            -9.4953         estimate D2E/DX2                !
 ! D22   D(3,2,6,7)            -13.6046         estimate D2E/DX2                !
 ! D23   D(3,2,6,17)           106.7455         estimate D2E/DX2                !
 ! D24   D(3,2,6,18)          -133.8756         estimate D2E/DX2                !
 ! D25   D(13,2,6,7)          -131.3225         estimate D2E/DX2                !
 ! D26   D(13,2,6,17)          -10.9723         estimate D2E/DX2                !
 ! D27   D(13,2,6,18)          108.4065         estimate D2E/DX2                !
 ! D28   D(5,6,7,8)            179.9543         estimate D2E/DX2                !
 ! D29   D(17,6,7,8)            57.9606         estimate D2E/DX2                !
 ! D30   D(18,6,7,8)           -58.0587         estimate D2E/DX2                !
 ! D31   D(6,7,8,9)              0.0066         estimate D2E/DX2                !
 ! D32   D(6,7,8,19)          -179.9935         estimate D2E/DX2                !
 ! D33   D(7,8,9,19)           179.9998         estimate D2E/DX2                !
 --------------------------------------------------------------------------------
 Trust Radius=3.00D-01 FncErr=1.00D-07 GrdErr=1.00D-06
 Number of steps in this run=     93 maximum allowed number of steps=    114.
 GradGradGradGradGradGradGradGradGradGradGradGradGradGradGradGradGradGrad

                          Input orientation:                          
 ---------------------------------------------------------------------
 Center     Atomic      Atomic             Coordinates (Angstroms)
 Number     Number       Type             X           Y           Z
 ---------------------------------------------------------------------
      1          6           0        2.145097   -0.146028    1.328218
      2          6           0        1.363112   -0.037768    0.004199
      3          6           0       -0.063212   -0.607407    0.143789
      4          6           0        2.079043   -0.695349   -1.088997
      5          6           0        2.661593   -1.256172   -1.981102
      6          6           0        3.392377   -1.896093   -3.058031
      7          8           0        2.679361   -3.093468   -3.466772
      8          6           0        3.257054   -3.776927   -4.461826
      9          8           0        4.280030   -3.484724   -5.018672
     10          1           0        2.249542   -1.192946    1.629044
     11          1           0        3.146854    0.280451    1.230809
     12          1           0        1.616976    0.389325    2.123573
     13          1           0        1.274656    1.028010   -0.249009
     14          1           0       -0.603622   -0.077987    0.934692
     15          1           0       -0.622729   -0.502549   -0.789177
     16          1           0       -0.029660   -1.670179    0.401950
     17          1           0        3.495246   -1.237542   -3.927178
     18          1           0        4.404129   -2.180828   -2.749877
     19          1           0        2.637952   -4.658358   -4.690000
 ---------------------------------------------------------------------
                    Distance matrix (angstroms):
                    1          2          3          4          5
     1  C    0.000000
     2  C    1.541508   0.000000
     3  C    2.548014   1.542199   0.000000
     4  C    2.479727   1.462890   2.473206   0.000000
     5  C    3.528568   2.666829   3.515767   1.204051   0.000000
     6  C    4.884426   4.116860   4.884000   2.654003   1.450283
     7  O    5.653740   4.808061   5.170914   3.430039   2.362877
     8  C    6.924196   6.124843   6.502439   4.718030   3.586471
     9  O    7.482503   6.754194   7.334419   5.297858   4.100319
    10  H    1.094277   2.181814   2.810280   2.768468   3.634135
    11  H    1.093110   2.188051   3.503488   2.733844   3.593474
    12  H    1.094579   2.176833   2.781377   3.422080   4.543924
    13  H    2.150274   1.099009   2.149133   2.079082   3.184529
    14  H    2.777580   2.176116   1.094466   3.416598   4.533388
    15  H    3.503046   2.188386   1.092922   2.725185   3.574270
    16  H    2.812574   2.182380   1.094192   2.760406   3.618450
    17  H    5.534754   4.630462   5.443572   3.217900   2.117201
    18  H    5.086698   4.628760   5.550324   3.220434   2.117177
    19  H    7.538102   6.708992   6.860904   5.383776   4.348972
                    6          7          8          9         10
     6  C    0.000000
     7  O    1.452298   0.000000
     8  C    2.350849   1.338274   0.000000
     9  O    2.675030   2.263541   1.200809   0.000000
    10  H    4.875362   5.455645   6.692588   7.318965   0.000000
    11  H    4.815783   5.802512   6.991463   7.383538   1.770496
    12  H    5.934998   6.671616   7.963353   8.550542   1.774339
    13  H    4.574464   5.414219   6.690676   7.221268   3.067593
    14  H    5.934253   6.264502   7.596669   8.420122   3.140988
    15  H    4.817753   4.978571   6.265989   7.128748   3.817641
    16  H    4.871636   4.932702   6.236761   7.158850   2.632161
    17  H    1.095304   2.078968   2.605967   2.618601   5.694328
    18  H    1.095296   2.078864   2.606547   2.619728   4.979267
    19  H    3.295844   1.986676   1.101031   2.044960   7.217358
                   11         12         13         14         15
    11  H    0.000000
    12  H    1.774657   0.000000
    13  H    2.500766   2.480776   0.000000
    14  H    3.779184   2.561811   2.480385   0.000000
    15  H    4.347779   3.780983   2.496890   1.775483   0.000000
    16  H    3.818665   3.149119   3.066791   1.774351   1.770275
    17  H    5.387997   6.541115   4.857229   6.463983   5.229244
    18  H    4.846080   6.174498   5.132697   6.563197   5.650687
    19  H    7.727017   8.540859   7.342734   7.945109   6.566522
                   16         17         18         19
    16  H    0.000000
    17  H    5.599419   0.000000
    18  H    5.463813   1.761220   0.000000
    19  H    6.478682   3.608162   3.608547   0.000000
 Stoichiometry    C7H10O2
 Framework group  C1[X(C7H10O2)]
 Deg. of freedom    51
 Full point group                 C1      NOp   1
 Largest Abelian subgroup         C1      NOp   1
 Largest concise Abelian subgroup C1      NOp   1
                         Standard orientation:                         
 ---------------------------------------------------------------------
 Center     Atomic      Atomic             Coordinates (Angstroms)
 Number     Number       Type             X           Y           Z
 ---------------------------------------------------------------------
      1          6           0        3.357089   -1.032541    0.621410
      2          6           0        2.672732   -0.060164   -0.359603
      3          6           0        3.045874    1.404614   -0.053716
      4          6           0        1.220580   -0.236991   -0.354026
      5          6           0        0.024281   -0.371343   -0.330430
      6          6           0       -1.412121   -0.571492   -0.327111
      7          8           0       -2.049104    0.585737    0.276413
      8          6           0       -3.384453    0.521620    0.337346
      9          8           0       -4.066705   -0.385614   -0.054317
     10          1           0        3.037446   -0.831492    1.648468
     11          1           0        3.108503   -2.070623    0.385867
     12          1           0        4.444382   -0.917083    0.570746
     13          1           0        3.032814   -0.293048   -1.371496
     14          1           0        4.131453    1.534323   -0.104209
     15          1           0        2.580947    2.087596   -0.769158
     16          1           0        2.712096    1.685310    0.949806
     17          1           0       -1.807387   -0.698233   -1.340714
     18          1           0       -1.697160   -1.462831    0.242048
     19          1           0       -3.760510    1.442880    0.808653
 ---------------------------------------------------------------------
 Rotational constants (GHZ):      5.2478196      0.5245829      0.4976472
 Standard basis: 6-31G(2df,p) (6D, 7F)
 There are   329 symmetry adapted cartesian basis functions of A   symmetry.
 There are   302 symmetry adapted basis functions of A   symmetry.
   302 basis functions,   466 primitive gaussians,   329 cartesian basis functions
    34 alpha electrons       34 beta electrons
       nuclear repulsion energy       400.8166287931 Hartrees.
 NAtoms=   19 NActive=   19 NUniq=   19 SFac= 1.00D+00 NAtFMM=   60 NAOKFM=F Big=F
 Integral buffers will be    131072 words long.
 Raffenetti 2 integral format.
 Two-electron integral symmetry is turned on.
 One-electron integrals computed using PRISM.
 NBasis=   302 RedAO= T EigKep=  5.12D-05  NBF=   302
 NBsUse=   302 1.00D-06 EigRej= -1.00D+00 NBFU=   302
 ExpMin= 1.61D-01 ExpMax= 5.48D+03 ExpMxC= 8.25D+02 IAcc=1 IRadAn=         1 AccDes= 0.00D+00
 Harris functional with IExCor=  402 and IRadAn=       1 diagonalized for initial guess.
 HarFok:  IExCor=  402 AccDes= 0.00D+00 IRadAn=         1 IDoV= 1 UseB2=F ITyADJ=14
 ICtDFT=  3500011 ScaDFX=  1.000000  1.000000  1.000000  1.000000
 FoFCou: FMM=F IPFlag=           0 FMFlag=      100000 FMFlg1=           0
         NFxFlg=           0 DoJE=T BraDBF=F KetDBF=T FulRan=T
         wScrn=  0.000000 ICntrl=     500 IOpCl=  0 I1Cent=   200000004 NGrid=           0
         NMat0=    1 NMatS0=      1 NMatT0=    0 NMatD0=    1 NMtDS0=    0 NMtDT0=    0
 Petite list used in FoFCou.
 Requested convergence on RMS density matrix=1.00D-08 within 128 cycles.
 Requested convergence on MAX density matrix=1.00D-06.
 Requested convergence on             energy=1.00D-06.
 No special actions if energy rises.
 Integral accuracy reduced to 1.0D-05 until final iterations.
 Initial convergence to 1.0D-05 achieved.  Increase integral accuracy.
 SCF Done:  E(RB3LYP) =  -423.186199136     A.U. after   14 cycles
            NFock= 14  Conv=0.54D-08     -V/T= 2.0075

 **********************************************************************

            Population analysis using the SCF density.

 **********************************************************************

 Orbital symmetries:
       Occupied  (A) (A) (A) (A) (A) (A) (A) (A) (A) (A) (A) (A)
                 (A) (A) (A) (A) (A) (A) (A) (A) (A) (A) (A) (A)
                 (A) (A) (A) (A) (A) (A) (A) (A) (A) (A)
       Virtual   (A) (A) (A) (A) (A) (A) (A) (A) (A) (A) (A) (A)
                 (A) (A) (A) (A) (A) (A) (A) (A) (A) (A) (A) (A)
                 (A) (A) (A) (A) (A) (A) (A) (A) (A) (A) (A) (A)
                 (A) (A) (A) (A) (A) (A) (A) (A) (A) (A) (A) (A)
                 (A) (A) (A) (A) (A) (A) (A) (A) (A) (A) (A) (A)
                 (A) (A) (A) (A) (A) (A) (A) (A) (A) (A) (A) (A)
                 (A) (A) (A) (A) (A) (A) (A) (A) (A) (A) (A) (A)
                 (A) (A) (A) (A) (A) (A) (A) (A) (A) (A) (A) (A)
                 (A) (A) (A) (A) (A) (A) (A) (A) (A) (A) (A) (A)
                 (A) (A) (A) (A) (A) (A) (A) (A) (A) (A) (A) (A)
                 (A) (A) (A) (A) (A) (A) (A) (A) (A) (A) (A) (A)
                 (A) (A) (A) (A) (A) (A) (A) (A) (A) (A) (A) (A)
                 (A) (A) (A) (A) (A) (A) (A) (A) (A) (A) (A) (A)
                 (A) (A) (A) (A) (A) (A) (A) (A) (A) (A) (A) (A)
                 (A) (A) (A) (A) (A) (A) (A) (A) (A) (A) (A) (A)
                 (A) (A) (A) (A) (A) (A) (A) (A) (A) (A) (A) (A)
                 (A) (A) (A) (A) (A) (A) (A) (A) (A) (A) (A) (A)
                 (A) (A) (A) (A) (A) (A) (A) (A) (A) (A) (A) (A)
                 (A) (A) (A) (A) (A) (A) (A) (A) (A) (A) (A) (A)
                 (A) (A) (A) (A) (A) (A) (A) (A) (A) (A) (A) (A)
                 (A) (A) (A) (A) (A) (A) (A) (A) (A) (A) (A) (A)
                 (A) (A) (A) (A) (A) (A) (A) (A) (A) (A) (A) (A)
                 (A) (A) (A) (A)
 The electronic state is 1-A.
 Alpha  occ. eigenvalues --  -19.19329 -19.13647 -10.31029 -10.26591 -10.21773
 Alpha  occ. eigenvalues --  -10.18431 -10.18412 -10.18330 -10.17832  -1.10924
 Alpha  occ. eigenvalues --   -1.02379  -0.82040  -0.78214  -0.70950  -0.69213
 Alpha  occ. eigenvalues --   -0.62185  -0.60089  -0.53883  -0.49715  -0.49373
 Alpha  occ. eigenvalues --   -0.47750  -0.45595  -0.44825  -0.41924  -0.40715
 Alpha  occ. eigenvalues --   -0.39180  -0.37594  -0.36974  -0.35608  -0.35473
 Alpha  occ. eigenvalues --   -0.31371  -0.28943  -0.26300  -0.25779
 Alpha virt. eigenvalues --    0.00639   0.02715   0.05024   0.09187   0.11511
 Alpha virt. eigenvalues --    0.13471   0.13633   0.14592   0.15112   0.16350
 Alpha virt. eigenvalues --    0.17837   0.17938   0.18567   0.20044   0.21247
 Alpha virt. eigenvalues --    0.23448   0.25569   0.25751   0.27365   0.29024
 Alpha virt. eigenvalues --    0.37525   0.40396   0.43564   0.44758   0.46018
 Alpha virt. eigenvalues --    0.46641   0.47826   0.48717   0.50944   0.54990
 Alpha virt. eigenvalues --    0.56385   0.57538   0.58896   0.59593   0.61884
 Alpha virt. eigenvalues --    0.62730   0.65313   0.66175   0.67962   0.69046
 Alpha virt. eigenvalues --    0.70533   0.71478   0.72747   0.73000   0.73454
 Alpha virt. eigenvalues --    0.74157   0.74500   0.75339   0.76074   0.77604
 Alpha virt. eigenvalues --    0.77920   0.79814   0.81637   0.83208   0.85261
 Alpha virt. eigenvalues --    0.85668   0.87259   0.88928   0.90339   0.91166
 Alpha virt. eigenvalues --    0.92246   0.95359   0.96344   1.01995   1.02761
 Alpha virt. eigenvalues --    1.04989   1.05506   1.07899   1.09841   1.11757
 Alpha virt. eigenvalues --    1.12453   1.14003   1.16903   1.18914   1.20646
 Alpha virt. eigenvalues --    1.22487   1.27467   1.29333   1.32688   1.36911
 Alpha virt. eigenvalues --    1.38242   1.38549   1.39967   1.43958   1.45861
 Alpha virt. eigenvalues --    1.47248   1.48016   1.50275   1.51164   1.51790
 Alpha virt. eigenvalues --    1.55228   1.55896   1.57909   1.61222   1.62278
 Alpha virt. eigenvalues --    1.64339   1.64643   1.67920   1.70533   1.78092
 Alpha virt. eigenvalues --    1.80301   1.82086   1.83465   1.87989   1.90646
 Alpha virt. eigenvalues --    1.94975   1.95491   2.00365   2.02717   2.03648
 Alpha virt. eigenvalues --    2.11429   2.14282   2.21763   2.22700   2.24465
 Alpha virt. eigenvalues --    2.25694   2.28821   2.29915   2.33545   2.35769
 Alpha virt. eigenvalues --    2.41051   2.43169   2.49583   2.53842   2.59651
 Alpha virt. eigenvalues --    2.61589   2.64058   2.65188   2.66262   2.68272
 Alpha virt. eigenvalues --    2.69521   2.72720   2.74892   2.76877   2.80108
 Alpha virt. eigenvalues --    2.81392   2.83171   2.85613   2.86925   2.88166
 Alpha virt. eigenvalues --    2.90309   2.90784   2.94366   2.95379   2.96305
 Alpha virt. eigenvalues --    2.98604   3.01005   3.02772   3.03567   3.05102
 Alpha virt. eigenvalues --    3.05322   3.08619   3.10126   3.14027   3.15579
 Alpha virt. eigenvalues --    3.15634   3.18396   3.21382   3.25561   3.31473
 Alpha virt. eigenvalues --    3.32881   3.34841   3.35868   3.38511   3.39556
 Alpha virt. eigenvalues --    3.44003   3.45703   3.47225   3.52394   3.53186
 Alpha virt. eigenvalues --    3.56502   3.59178   3.60664   3.61903   3.65973
 Alpha virt. eigenvalues --    3.68218   3.68482   3.70110   3.74436   3.78163
 Alpha virt. eigenvalues --    3.81922   3.84635   3.90230   3.96702   3.98299
 Alpha virt. eigenvalues --    4.02263   4.08191   4.09276   4.10347   4.12674
 Alpha virt. eigenvalues --    4.15748   4.17929   4.20099   4.20458   4.24175
 Alpha virt. eigenvalues --    4.24749   4.26724   4.31807   4.32335   4.37845
 Alpha virt. eigenvalues --    4.38290   4.39047   4.40718   4.42137   4.42965
 Alpha virt. eigenvalues --    4.46153   4.47565   4.48988   4.50752   4.51696
 Alpha virt. eigenvalues --    4.54162   4.56087   4.59893   4.61922   4.64103
 Alpha virt. eigenvalues --    4.67410   4.68279   4.70557   4.75122   4.75588
 Alpha virt. eigenvalues --    4.78995   4.80120   4.82818   4.84725   4.85293
 Alpha virt. eigenvalues --    4.89739   4.93622   4.95134   5.00156   5.05374
 Alpha virt. eigenvalues --    5.06273   5.07015   5.08072   5.13166   5.21368
 Alpha virt. eigenvalues --    5.27427   5.31209   5.32199   5.34008   5.42282
 Alpha virt. eigenvalues --    5.43523   5.47251   5.49606   5.58792   5.61264
 Alpha virt. eigenvalues --    5.69949   5.74514   5.81073   5.83150   5.94948
 Alpha virt. eigenvalues --    6.09376   6.20306   6.28274   6.42134   6.44916
 Alpha virt. eigenvalues --    6.64294   6.76856   7.01529   7.18573   9.88165
 Alpha virt. eigenvalues --   10.61929  10.97683  11.44722  11.75001  11.96416
 Alpha virt. eigenvalues --   12.54680  12.92578  13.36968
          Condensed to atoms (all electrons):
               1          2          3          4          5          6
     1  C    4.992087   0.389467  -0.040419  -0.030634   0.000282   0.000053
     2  C    0.389467   4.704872   0.394164   0.476920  -0.072768  -0.002289
     3  C   -0.040419   0.394164   4.983589  -0.030618  -0.002179   0.000039
     4  C   -0.030634   0.476920  -0.030618   4.795534   0.742165  -0.095151
     5  C    0.000282  -0.072768  -0.002179   0.742165   5.069698   0.369917
     6  C    0.000053  -0.002289   0.000039  -0.095151   0.369917   5.014852
     7  O    0.000000   0.000017   0.000005  -0.004345  -0.034795   0.282779
     8  C    0.000000   0.000002   0.000000   0.000985   0.012310  -0.072204
     9  O    0.000000   0.000000   0.000000   0.000057   0.003853   0.003541
    10  H    0.375020  -0.022041  -0.005364  -0.004933  -0.000404  -0.000018
    11  H    0.373485  -0.021749   0.004459  -0.000971   0.000601  -0.000003
    12  H    0.365424  -0.021611  -0.002941   0.002964  -0.000094   0.000000
    13  H   -0.045476   0.371150  -0.042951  -0.035792  -0.003823  -0.000042
    14  H   -0.002766  -0.022663   0.366884   0.003117  -0.000016   0.000000
    15  H    0.004511  -0.022107   0.373805  -0.000847   0.001139   0.000000
    16  H   -0.005510  -0.022204   0.375997  -0.005240  -0.000368  -0.000014
    17  H   -0.000005  -0.000087   0.000000  -0.001130  -0.021418   0.358063
    18  H    0.000020   0.000014  -0.000002  -0.001787  -0.023314   0.360484
    19  H    0.000000   0.000000   0.000000   0.000069   0.001146   0.005480
               7          8          9         10         11         12
     1  C    0.000000   0.000000   0.000000   0.375020   0.373485   0.365424
     2  C    0.000017   0.000002   0.000000  -0.022041  -0.021749  -0.021611
     3  C    0.000005   0.000000   0.000000  -0.005364   0.004459  -0.002941
     4  C   -0.004345   0.000985   0.000057  -0.004933  -0.000971   0.002964
     5  C   -0.034795   0.012310   0.003853  -0.000404   0.000601  -0.000094
     6  C    0.282779  -0.072204   0.003541  -0.000018  -0.000003   0.000000
     7  O    7.728239   0.397713  -0.057716   0.000000   0.000000   0.000000
     8  C    0.397713   4.380189   0.730652   0.000000   0.000000   0.000000
     9  O   -0.057716   0.730652   7.644115   0.000000   0.000000   0.000000
    10  H    0.000000   0.000000   0.000000   0.582374  -0.030837  -0.030202
    11  H    0.000000   0.000000   0.000000  -0.030837   0.583381  -0.029694
    12  H    0.000000   0.000000   0.000000  -0.030202  -0.029694   0.600832
    13  H   -0.000001   0.000000   0.000000   0.005712  -0.002908  -0.002418
    14  H    0.000000   0.000000   0.000000  -0.000085  -0.000074   0.003371
    15  H    0.000000   0.000000   0.000000  -0.000054  -0.000185  -0.000082
    16  H   -0.000001   0.000000   0.000000   0.004667  -0.000052  -0.000051
    17  H   -0.026503  -0.001384   0.006204   0.000001   0.000000   0.000000
    18  H   -0.026304  -0.001278   0.006207  -0.000003  -0.000003   0.000000
    19  H   -0.058897   0.359578  -0.037620   0.000000   0.000000   0.000000
              13         14         15         16         17         18
     1  C   -0.045476  -0.002766   0.004511  -0.005510  -0.000005   0.000020
     2  C    0.371150  -0.022663  -0.022107  -0.022204  -0.000087   0.000014
     3  C   -0.042951   0.366884   0.373805   0.375997   0.000000  -0.000002
     4  C   -0.035792   0.003117  -0.000847  -0.005240  -0.001130  -0.001787
     5  C   -0.003823  -0.000016   0.001139  -0.000368  -0.021418  -0.023314
     6  C   -0.000042   0.000000   0.000000  -0.000014   0.358063   0.360484
     7  O   -0.000001   0.000000   0.000000  -0.000001  -0.026503  -0.026304
     8  C    0.000000   0.000000   0.000000   0.000000  -0.001384  -0.001278
     9  O    0.000000   0.000000   0.000000   0.000000   0.006204   0.006207
    10  H    0.005712  -0.000085  -0.000054   0.004667   0.000001  -0.000003
    11  H   -0.002908  -0.000074  -0.000185  -0.000052   0.000000  -0.000003
    12  H   -0.002418   0.003371  -0.000082  -0.000051   0.000000   0.000000
    13  H    0.648524  -0.002755  -0.003103   0.005698   0.000026  -0.000004
    14  H   -0.002755   0.600218  -0.029523  -0.030472   0.000000   0.000000
    15  H   -0.003103  -0.029523   0.580355  -0.030711  -0.000002   0.000001
    16  H    0.005698  -0.030472  -0.030711   0.580667   0.000001   0.000000
    17  H    0.000026   0.000000  -0.000002   0.000001   0.581840  -0.047631
    18  H   -0.000004   0.000000   0.000001   0.000000  -0.047631   0.581662
    19  H    0.000000   0.000000   0.000000   0.000000   0.000113   0.000114
              19
     1  C    0.000000
     2  C    0.000000
     3  C    0.000000
     4  C    0.000069
     5  C    0.001146
     6  C    0.005480
     7  O   -0.058897
     8  C    0.359578
     9  O   -0.037620
    10  H    0.000000
    11  H    0.000000
    12  H    0.000000
    13  H    0.000000
    14  H    0.000000
    15  H    0.000000
    16  H    0.000000
    17  H    0.000113
    18  H    0.000114
    19  H    0.613379
 Mulliken charges:
               1
     1  C   -0.375538
     2  C   -0.129087
     3  C   -0.374467
     4  C    0.189636
     5  C   -0.041931
     6  C   -0.225489
     7  O   -0.200190
     8  C    0.193436
     9  O   -0.299294
    10  H    0.126168
    11  H    0.124550
    12  H    0.114502
    13  H    0.108165
    14  H    0.114765
    15  H    0.126804
    16  H    0.127591
    17  H    0.151914
    18  H    0.151826
    19  H    0.116639
 Sum of Mulliken charges =   0.00000
 Mulliken charges with hydrogens summed into heavy atoms:
               1
     1  C   -0.010318
     2  C   -0.020922
     3  C   -0.005308
     4  C    0.189636
     5  C   -0.041931
     6  C    0.078251
     7  O   -0.200190
     8  C    0.310075
     9  O   -0.299294
 Electronic spatial extent (au):  <R**2>=           2203.9586
 Charge=              0.0000 electrons
 Dipole moment (field-independent basis, Debye):
    X=              2.4830    Y=              0.5872    Z=              0.1444  Tot=              2.5556
 Quadrupole moment (field-independent basis, Debye-Ang):
   XX=            -57.0049   YY=            -52.3276   ZZ=            -52.0738
   XY=             -4.3957   XZ=             -2.2266   YZ=              0.2777
 Traceless Quadrupole moment (field-independent basis, Debye-Ang):
   XX=             -3.2028   YY=              1.4745   ZZ=              1.7283
   XY=             -4.3957   XZ=             -2.2266   YZ=              0.2777
 Octapole moment (field-independent basis, Debye-Ang**2):
  XXX=             45.6600  YYY=              1.2970  ZZZ=              1.2126  XYY=            -12.2638
  XXY=             24.8902  XXZ=              6.8802  XZZ=            -11.4953  YZZ=              1.0006
  YYZ=              1.0444  XYZ=             -1.4915
 Hexadecapole moment (field-independent basis, Debye-Ang**3):
 XXXX=          -2644.5905 YYYY=           -269.8071 ZZZZ=           -118.5910 XXXY=           -102.3929
 XXXZ=            -50.2504 YYYX=             -5.7515 YYYZ=              0.6949 ZZZX=             -1.6539
 ZZZY=              2.5341 XXYY=           -439.7187 XXZZ=           -413.6920 YYZZ=            -65.0968
 XXYZ=              8.4892 YYXZ=             -6.1227 ZZXY=              0.4779
 N-N= 4.008166287931D+02 E-N=-1.787943892522D+03  KE= 4.200316900272D+02
 Calling FoFJK, ICntrl=      2127 FMM=F ISym2X=0 I1Cent= 0 IOpClX= 0 NMat=1 NMatS=1 NMatT=0.
 ***** Axes restored to original set *****
 -------------------------------------------------------------------
 Center     Atomic                   Forces (Hartrees/Bohr)
 Number     Number              X              Y              Z
 -------------------------------------------------------------------
      1        6           0.000003840    0.000003660   -0.000003116
      2        6          -0.000015264    0.000014332    0.000004710
      3        6          -0.000000186    0.000000341    0.000002075
      4        6           0.000012334    0.000005152   -0.000010558
      5        6          -0.000001249   -0.000002064    0.000013473
      6        6          -0.000001183    0.000003052    0.000002877
      7        8          -0.000003426   -0.000009389   -0.000019980
      8        6           0.000011384    0.000007807    0.000000151
      9        8          -0.000002729   -0.000010159    0.000008904
     10        1          -0.000022528   -0.000005714    0.000017662
     11        1           0.000005315   -0.000002914   -0.000003812
     12        1           0.000023157    0.000011312   -0.000008026
     13        1          -0.000017272   -0.000010874    0.000004079
     14        1          -0.000000252   -0.000003450    0.000002545
     15        1           0.000006526   -0.000004232   -0.000004993
     16        1           0.000000548   -0.000002903   -0.000008021
     17        1          -0.000001766   -0.000003382   -0.000004168
     18        1           0.000002655    0.000007334    0.000005749
     19        1           0.000000096    0.000002091    0.000000449
 -------------------------------------------------------------------
 Cartesian Forces:  Max     0.000023157 RMS     0.000008636

 GradGradGradGradGradGradGradGradGradGradGradGradGradGradGradGradGradGrad
 Berny optimization.
 FormGI is forming the generalized inverse of G from B-inverse, IUseBI=4.
 Internal  Forces:  Max     0.000020289 RMS     0.000008426
 Search for a local minimum.
 Step number   1 out of a maximum of   93
 All quantities printed in internal units (Hartrees-Bohrs-Radians)
 Mixed Optimization -- En-DIIS/RFO-DIIS
 Second derivative matrix not updated -- first step.
 ITU=  0
     Eigenvalues ---    0.00230   0.00230   0.00230   0.01000   0.01082
     Eigenvalues ---    0.01251   0.02508   0.03062   0.03441   0.03834
     Eigenvalues ---    0.04248   0.04721   0.05238   0.05453   0.05456
     Eigenvalues ---    0.05542   0.05552   0.05912   0.07126   0.11470
     Eigenvalues ---    0.13831   0.16000   0.16000   0.16000   0.16000
     Eigenvalues ---    0.16000   0.16000   0.16000   0.16878   0.17549
     Eigenvalues ---    0.21980   0.22000   0.25000   0.28325   0.28386
     Eigenvalues ---    0.33568   0.33792   0.34207   0.34208   0.34289
     Eigenvalues ---    0.34302   0.34323   0.34333   0.34456   0.34477
     Eigenvalues ---    0.36605   0.37946   0.38208   0.57593   1.02813
     Eigenvalues ---    1.04418
 RFO step:  Lambda=-7.18634545D-07 EMin= 2.30000000D-03
 Linear search not attempted -- first point.
 Iteration  1 RMS(Cart)=  0.00271133 RMS(Int)=  0.00000611
 Iteration  2 RMS(Cart)=  0.00000655 RMS(Int)=  0.00000009
 Iteration  3 RMS(Cart)=  0.00000000 RMS(Int)=  0.00000009
 Variable       Old X    -DE/DX   Delta X   Delta X   Delta X     New X
                                 (Linear)    (Quad)   (Total)
    R1        2.91303   0.00001   0.00000   0.00004   0.00004   2.91306
    R2        2.06788   0.00001   0.00000   0.00003   0.00003   2.06791
    R3        2.06568   0.00000   0.00000   0.00001   0.00001   2.06569
    R4        2.06845  -0.00001   0.00000  -0.00004  -0.00004   2.06842
    R5        2.91433  -0.00001   0.00000  -0.00002  -0.00002   2.91431
    R6        2.76446   0.00001   0.00000   0.00003   0.00003   2.76449
    R7        2.07683  -0.00001   0.00000  -0.00003  -0.00003   2.07680
    R8        2.06824   0.00000   0.00000   0.00000   0.00000   2.06824
    R9        2.06532   0.00000   0.00000   0.00000   0.00000   2.06532
   R10        2.06772   0.00000   0.00000   0.00000   0.00000   2.06773
   R11        2.27533   0.00000   0.00000   0.00000   0.00000   2.27532
   R12        2.74064   0.00001   0.00000   0.00002   0.00002   2.74066
   R13        2.74444   0.00001   0.00000   0.00003   0.00003   2.74447
   R14        2.06982   0.00000   0.00000   0.00000   0.00000   2.06983
   R15        2.06981   0.00000   0.00000   0.00000   0.00000   2.06981
   R16        2.52897   0.00000   0.00000  -0.00001  -0.00001   2.52897
   R17        2.26920  -0.00001   0.00000  -0.00001  -0.00001   2.26919
   R18        2.08065   0.00000   0.00000   0.00000   0.00000   2.08064
    A1        1.93022   0.00000   0.00000   0.00003   0.00003   1.93025
    A2        1.94008   0.00000   0.00000  -0.00002  -0.00002   1.94006
    A3        1.92304   0.00001   0.00000   0.00005   0.00005   1.92309
    A4        1.88630   0.00001   0.00000   0.00008   0.00008   1.88638
    A5        1.89043  -0.00001   0.00000  -0.00005  -0.00005   1.89039
    A6        1.89241  -0.00001   0.00000  -0.00010  -0.00010   1.89231
    A7        1.94495   0.00001   0.00000   0.00010   0.00010   1.94505
    A8        1.94123  -0.00001   0.00000  -0.00006  -0.00006   1.94117
    A9        1.88265   0.00000   0.00000   0.00002   0.00002   1.88267
   A10        1.93289   0.00000   0.00000  -0.00002  -0.00002   1.93287
   A11        1.88033  -0.00001   0.00000   0.00000   0.00000   1.88033
   A12        1.87878   0.00000   0.00000  -0.00004  -0.00004   1.87874
   A13        1.92133   0.00000   0.00000   0.00006   0.00006   1.92139
   A14        1.93990  -0.00001   0.00000  -0.00007  -0.00007   1.93982
   A15        1.93024   0.00000   0.00000  -0.00002  -0.00002   1.93022
   A16        1.89408   0.00001   0.00000   0.00007   0.00007   1.89415
   A17        1.89070   0.00000   0.00000   0.00003   0.00003   1.89073
   A18        1.88630   0.00000   0.00000  -0.00006  -0.00006   1.88624
   A19        1.90222   0.00002   0.00000   0.00010   0.00010   1.90232
   A20        1.95117   0.00001   0.00000   0.00004   0.00004   1.95121
   A21        1.95115  -0.00002   0.00000  -0.00011  -0.00011   1.95104
   A22        1.89493  -0.00002   0.00000  -0.00010  -0.00010   1.89483
   A23        1.89480   0.00000   0.00000   0.00007   0.00007   1.89487
   A24        1.86795   0.00001   0.00000   0.00000   0.00000   1.86795
   A25        2.00247   0.00000   0.00000   0.00000   0.00000   2.00247
   A26        2.19971   0.00001   0.00000   0.00003   0.00003   2.19974
   A27        1.89674   0.00000   0.00000  -0.00002  -0.00002   1.89672
   A28        2.18673   0.00000   0.00000  -0.00001  -0.00001   2.18673
   A29        3.13527   0.00001   0.00000   0.00039   0.00039   3.13566
   A30        3.12244  -0.00002   0.00000  -0.00158  -0.00158   3.12087
   A31        3.16305   0.00000   0.00000  -0.00009  -0.00009   3.16296
   A32        3.18291   0.00000   0.00000   0.00064   0.00064   3.18355
    D1        1.06975  -0.00002   0.00000  -0.00539  -0.00539   1.06436
    D2       -1.09633  -0.00001   0.00000  -0.00539  -0.00540  -1.10172
    D3        3.13031  -0.00001   0.00000  -0.00533  -0.00533   3.12499
    D4       -3.11804  -0.00001   0.00000  -0.00529  -0.00529  -3.12333
    D5        0.99907  -0.00001   0.00000  -0.00529  -0.00529   0.99378
    D6       -1.05748  -0.00001   0.00000  -0.00522  -0.00522  -1.06270
    D7       -1.01974  -0.00002   0.00000  -0.00539  -0.00539  -1.02513
    D8        3.09737  -0.00001   0.00000  -0.00539  -0.00539   3.09198
    D9        1.04083  -0.00001   0.00000  -0.00533  -0.00533   1.03550
   D10        1.01434   0.00000   0.00000  -0.00056  -0.00056   1.01378
   D11        3.11350   0.00001   0.00000  -0.00048  -0.00048   3.11302
   D12       -1.07440   0.00000   0.00000  -0.00062  -0.00062  -1.07502
   D13       -3.09806   0.00000   0.00000  -0.00058  -0.00058  -3.09865
   D14       -0.99891   0.00000   0.00000  -0.00051  -0.00051  -0.99941
   D15        1.09638  -0.00001   0.00000  -0.00064  -0.00064   1.09574
   D16       -1.04762   0.00000   0.00000  -0.00064  -0.00064  -1.04826
   D17        1.05154   0.00000   0.00000  -0.00056  -0.00056   1.05098
   D18       -3.13636  -0.00001   0.00000  -0.00070  -0.00070  -3.13706
   D19        1.93340   0.00001   0.00000   0.00086   0.00086   1.93426
   D20       -2.24928   0.00001   0.00000   0.00152   0.00152  -2.24776
   D21       -0.16572   0.00000   0.00000   0.00076   0.00076  -0.16497
   D22       -0.23744   0.00000   0.00000   0.00067   0.00067  -0.23677
   D23        1.86306   0.00000   0.00000   0.00133   0.00133   1.86439
   D24       -2.33657  -0.00001   0.00000   0.00057   0.00057  -2.33600
   D25       -2.29201   0.00000   0.00000   0.00036   0.00036  -2.29165
   D26       -0.19150   0.00000   0.00000   0.00102   0.00102  -0.19049
   D27        1.89205  -0.00001   0.00000   0.00025   0.00026   1.89231
   D28        3.14079   0.00001   0.00000   0.00097   0.00097  -3.14142
   D29        1.01160   0.00001   0.00000   0.00092   0.00092   1.01252
   D30       -1.01331   0.00001   0.00000   0.00094   0.00094  -1.01237
   D31        0.00012   0.00001   0.00000   0.00046   0.00046   0.00057
   D32       -3.14148   0.00001   0.00000   0.00039   0.00039  -3.14109
   D33        3.14159   0.00000   0.00000  -0.00007  -0.00007   3.14152
         Item               Value     Threshold  Converged?
 Maximum Force            0.000020     0.000450     YES
 RMS     Force            0.000008     0.000300     YES
 Maximum Displacement     0.009968     0.001800     NO 
 RMS     Displacement     0.002711     0.001200     NO 
 Predicted change in Energy=-3.593023D-07
 GradGradGradGradGradGradGradGradGradGradGradGradGradGradGradGradGradGrad

                          Input orientation:                          
 ---------------------------------------------------------------------
 Center     Atomic      Atomic             Coordinates (Angstroms)
 Number     Number       Type             X           Y           Z
 ---------------------------------------------------------------------
      1          6           0        2.145648   -0.146195    1.327549
      2          6           0        1.362438   -0.037920    0.004233
      3          6           0       -0.063935   -0.607097    0.145112
      4          6           0        2.077224   -0.695902   -1.089488
      5          6           0        2.659229   -1.256853   -1.981867
      6          6           0        3.391436   -1.896106   -3.058240
      7          8           0        2.679285   -3.093501   -3.468480
      8          6           0        3.259011   -3.776899   -4.462388
      9          8           0        4.283323   -3.484906   -5.016874
     10          1           0        2.245368   -1.192742    1.631305
     11          1           0        3.149321    0.275176    1.227593
     12          1           0        1.621270    0.394020    2.122067
     13          1           0        1.274094    1.027818   -0.249110
     14          1           0       -0.603367   -0.077832    0.936788
     15          1           0       -0.624316   -0.501706   -0.787273
     16          1           0       -0.030464   -1.669997    0.402758
     17          1           0        3.495156   -1.237169   -3.926998
     18          1           0        4.402905   -2.180618   -2.748949
     19          1           0        2.640174   -4.658112   -4.692105
 ---------------------------------------------------------------------
                    Distance matrix (angstroms):
                    1          2          3          4          5
     1  C    0.000000
     2  C    1.541528   0.000000
     3  C    2.548105   1.542189   0.000000
     4  C    2.479703   1.462903   2.473193   0.000000
     5  C    3.528393   2.666844   3.515942   1.204050   0.000000
     6  C    4.883577   4.116847   4.884936   2.653983   1.450293
     7  O    5.654491   4.809406   5.173539   3.430824   2.362984
     8  C    6.924230   6.125982   6.505280   4.718645   3.586552
     9  O    7.481200   6.754613   7.336657   5.298092   4.100387
    10  H    1.094291   2.181867   2.807958   2.770891   3.637362
    11  H    1.093117   2.188056   3.503595   2.731529   3.589976
    12  H    1.094561   2.176876   2.783971   3.421974   4.543678
    13  H    2.150294   1.098993   2.149111   2.079054   3.184457
    14  H    2.777489   2.176152   1.094467   3.416632   4.533560
    15  H    3.503079   2.188325   1.092922   2.725319   3.574769
    16  H    2.812947   2.182355   1.094193   2.760074   3.618229
    17  H    5.533684   4.630471   5.444833   3.217913   2.117238
    18  H    5.084479   4.627700   5.550155   3.219781   2.117112
    19  H    7.539110   6.710765   6.864517   5.384688   4.349060
                    6          7          8          9         10
     6  C    0.000000
     7  O    1.452312   0.000000
     8  C    2.350862   1.338271   0.000000
     9  O    2.675069   2.263551   1.200804   0.000000
    10  H    4.878527   5.459759   6.696150   7.321581   0.000000
    11  H    4.810556   5.798449   6.986216   7.376825   1.770564
    12  H    5.934117   6.673560   7.964534   8.549682   1.774305
    13  H    4.574241   5.415180   6.691555   7.221614   3.067608
    14  H    5.935050   6.267092   7.599484   8.422231   3.136984
    15  H    4.819534   4.981972   6.270055   7.132596   3.816037
    16  H    4.872272   4.935138   6.239337   7.160661   2.629926
    17  H    1.095306   2.078906   2.606268   2.619419   5.697251
    18  H    1.095299   2.078929   2.606239   2.618960   4.981716
    19  H    3.295844   1.986655   1.101029   2.044951   7.221507
                   11         12         13         14         15
    11  H    0.000000
    12  H    1.774584   0.000000
    13  H    2.502718   2.478852   0.000000
    14  H    3.780456   2.564476   2.480660   0.000000
    15  H    4.347823   3.782756   2.496602   1.775527   0.000000
    16  H    3.817733   3.153476   3.066759   1.774372   1.770237
    17  H    5.382991   6.539374   4.856969   6.465166   5.231523
    18  H    4.838934   6.171957   5.131542   6.562708   5.651538
    19  H    7.722653   8.543719   7.344126   7.948834   6.571173
                   16         17         18         19
    16  H    0.000000
    17  H    5.600369   0.000000
    18  H    5.463402   1.761222   0.000000
    19  H    6.482189   3.608217   3.608470   0.000000
 Stoichiometry    C7H10O2
 Framework group  C1[X(C7H10O2)]
 Deg. of freedom    51
 Full point group                 C1      NOp   1
 Largest Abelian subgroup         C1      NOp   1
 Largest concise Abelian subgroup C1      NOp   1
                         Standard orientation:                         
 ---------------------------------------------------------------------
 Center     Atomic      Atomic             Coordinates (Angstroms)
 Number     Number       Type             X           Y           Z
 ---------------------------------------------------------------------
      1          6           0        3.355999   -1.034418    0.620836
      2          6           0        2.673089   -0.060247   -0.359434
      3          6           0        3.047974    1.403803   -0.052244
      4          6           0        1.220702   -0.235268   -0.354252
      5          6           0        0.024286   -0.368614   -0.330980
      6          6           0       -1.411966   -0.569913   -0.327884
      7          8           0       -2.050106    0.586725    0.275586
      8          6           0       -3.385331    0.520908    0.337314
      9          8           0       -4.066638   -0.387520   -0.053210
     10          1           0        3.040622   -0.830380    1.648639
     11          1           0        3.101831   -2.071663    0.387542
     12          1           0        4.443644   -0.924217    0.566565
     13          1           0        3.033004   -0.292692   -1.371470
     14          1           0        4.133757    1.532151   -0.101839
     15          1           0        2.584390    2.087859   -0.767530
     16          1           0        2.713778    1.684235    0.951215
     17          1           0       -1.807025   -0.696889   -1.341541
     18          1           0       -1.696257   -1.461580    0.241140
     19          1           0       -3.762305    1.442042    0.808131
 ---------------------------------------------------------------------
 Rotational constants (GHZ):      5.2487008      0.5244572      0.4975309
 Standard basis: 6-31G(2df,p) (6D, 7F)
 There are   329 symmetry adapted cartesian basis functions of A   symmetry.
 There are   302 symmetry adapted basis functions of A   symmetry.
   302 basis functions,   466 primitive gaussians,   329 cartesian basis functions
    34 alpha electrons       34 beta electrons
       nuclear repulsion energy       400.8028215958 Hartrees.
 NAtoms=   19 NActive=   19 NUniq=   19 SFac= 1.00D+00 NAtFMM=   60 NAOKFM=F Big=F
 Integral buffers will be    131072 words long.
 Raffenetti 2 integral format.
 Two-electron integral symmetry is turned on.
 One-electron integrals computed using PRISM.
 NBasis=   302 RedAO= T EigKep=  5.12D-05  NBF=   302
 NBsUse=   302 1.00D-06 EigRej= -1.00D+00 NBFU=   302
 Initial guess from the checkpoint file:  "/scratch/puck/g09_700ad893-d52d-416f-9b48-8f3820161e07/Gau-162488.chk"
 B after Tr=     0.000000    0.000000    0.000000
         Rot=    1.000000   -0.000374    0.000021    0.000065 Ang=  -0.04 deg.
 Requested convergence on RMS density matrix=1.00D-08 within 128 cycles.
 Requested convergence on MAX density matrix=1.00D-06.
 Requested convergence on             energy=1.00D-06.
 No special actions if energy rises.
 SCF Done:  E(RB3LYP) =  -423.186199344     A.U. after    8 cycles
            NFock=  8  Conv=0.65D-08     -V/T= 2.0075
 Calling FoFJK, ICntrl=      2127 FMM=F ISym2X=0 I1Cent= 0 IOpClX= 0 NMat=1 NMatS=1 NMatT=0.
 ***** Axes restored to original set *****
 -------------------------------------------------------------------
 Center     Atomic                   Forces (Hartrees/Bohr)
 Number     Number              X              Y              Z
 -------------------------------------------------------------------
      1        6           0.000002897    0.000012149   -0.000006812
      2        6          -0.000018406   -0.000015584   -0.000012577
      3        6           0.000000032    0.000008549    0.000008841
      4        6           0.000005655    0.000000867   -0.000000230
      5        6           0.000061228    0.000008544    0.000025994
      6        6          -0.000034163   -0.000015740   -0.000011611
      7        8          -0.000003271    0.000004746   -0.000022638
      8        6           0.000006183   -0.000006531    0.000011877
      9        8           0.000000313    0.000001521    0.000002294
     10        1           0.000000600   -0.000002782   -0.000000544
     11        1          -0.000006853    0.000004983    0.000000152
     12        1          -0.000002668   -0.000003770    0.000002061
     13        1          -0.000004809   -0.000001137   -0.000000552
     14        1          -0.000004816   -0.000003429    0.000000753
     15        1          -0.000000534    0.000002306   -0.000001067
     16        1           0.000002849    0.000000950   -0.000002023
     17        1          -0.000001879    0.000002837   -0.000000925
     18        1          -0.000003751    0.000003239    0.000006371
     19        1           0.000001392   -0.000001716    0.000000638
 -------------------------------------------------------------------
 Cartesian Forces:  Max     0.000061228 RMS     0.000012007

 GradGradGradGradGradGradGradGradGradGradGradGradGradGradGradGradGradGrad
 Berny optimization.
 Using GEDIIS/GDIIS optimizer.
 FormGI is forming the generalized inverse of G from B-inverse, IUseBI=4.
 Internal  Forces:  Max     0.000079721 RMS     0.000011663
 Search for a local minimum.
 Step number   2 out of a maximum of   93
 All quantities printed in internal units (Hartrees-Bohrs-Radians)
 Mixed Optimization -- En-DIIS/RFO-DIIS
 Swapping is turned off.
 Update second derivatives using D2CorX and points    1    2
 DE= -2.08D-07 DEPred=-3.59D-07 R= 5.79D-01
 Trust test= 5.79D-01 RLast= 1.65D-02 DXMaxT set to 3.00D-01
 ITU=  0  0
     Eigenvalues ---    0.00153   0.00230   0.00240   0.00966   0.01243
     Eigenvalues ---    0.01998   0.02520   0.03065   0.03466   0.03835
     Eigenvalues ---    0.04272   0.04727   0.05236   0.05441   0.05455
     Eigenvalues ---    0.05542   0.05551   0.05932   0.07680   0.11508
     Eigenvalues ---    0.13790   0.15959   0.16000   0.16000   0.16000
     Eigenvalues ---    0.16000   0.16000   0.16016   0.16873   0.17533
     Eigenvalues ---    0.21893   0.22014   0.25000   0.28322   0.28396
     Eigenvalues ---    0.33569   0.33786   0.34206   0.34210   0.34283
     Eigenvalues ---    0.34302   0.34317   0.34333   0.34460   0.34477
     Eigenvalues ---    0.36594   0.37936   0.38212   0.57592   1.02817
     Eigenvalues ---    1.04413
 En-DIIS/RFO-DIIS IScMMF=        0 using points:     2    1
 RFO step:  Lambda=-5.57638894D-08.
 DidBck=T Rises=F RFO-DIIS coefs:    0.74309    0.25691
 Iteration  1 RMS(Cart)=  0.00284889 RMS(Int)=  0.00000193
 Iteration  2 RMS(Cart)=  0.00000553 RMS(Int)=  0.00000035
 Iteration  3 RMS(Cart)=  0.00000000 RMS(Int)=  0.00000035
 Variable       Old X    -DE/DX   Delta X   Delta X   Delta X     New X
                                 (Linear)    (Quad)   (Total)
    R1        2.91306   0.00000  -0.00001   0.00001   0.00001   2.91307
    R2        2.06791   0.00000  -0.00001   0.00003   0.00002   2.06793
    R3        2.06569   0.00000   0.00000   0.00000   0.00000   2.06569
    R4        2.06842   0.00000   0.00001  -0.00003  -0.00002   2.06840
    R5        2.91431   0.00000   0.00000  -0.00002  -0.00002   2.91430
    R6        2.76449   0.00001  -0.00001   0.00003   0.00003   2.76451
    R7        2.07680   0.00000   0.00001  -0.00002  -0.00002   2.07678
    R8        2.06824   0.00000   0.00000   0.00000   0.00000   2.06825
    R9        2.06532   0.00000   0.00000   0.00000   0.00000   2.06532
   R10        2.06773   0.00000   0.00000   0.00000   0.00000   2.06772
   R11        2.27532   0.00000   0.00000   0.00000   0.00000   2.27533
   R12        2.74066   0.00000   0.00000   0.00001   0.00000   2.74066
   R13        2.74447   0.00000  -0.00001   0.00003   0.00002   2.74449
   R14        2.06983   0.00000   0.00000   0.00001   0.00001   2.06984
   R15        2.06981   0.00000   0.00000   0.00000   0.00000   2.06981
   R16        2.52897   0.00000   0.00000  -0.00001  -0.00001   2.52896
   R17        2.26919   0.00000   0.00000  -0.00001  -0.00001   2.26918
   R18        2.08064   0.00000   0.00000   0.00000   0.00000   2.08064
    A1        1.93025   0.00000  -0.00001   0.00002   0.00001   1.93026
    A2        1.94006   0.00000   0.00001  -0.00002  -0.00002   1.94004
    A3        1.92309   0.00000  -0.00001   0.00005   0.00004   1.92313
    A4        1.88638   0.00000  -0.00002   0.00007   0.00005   1.88643
    A5        1.89039   0.00000   0.00001  -0.00005  -0.00004   1.89035
    A6        1.89231   0.00000   0.00003  -0.00007  -0.00005   1.89226
    A7        1.94505   0.00000  -0.00002   0.00007   0.00004   1.94509
    A8        1.94117  -0.00001   0.00002  -0.00006  -0.00004   1.94113
    A9        1.88267  -0.00001  -0.00001  -0.00003  -0.00004   1.88264
   A10        1.93287   0.00001   0.00000   0.00003   0.00004   1.93291
   A11        1.88033   0.00000   0.00000  -0.00002  -0.00002   1.88031
   A12        1.87874   0.00000   0.00001   0.00001   0.00002   1.87875
   A13        1.92139   0.00001  -0.00002   0.00009   0.00007   1.92146
   A14        1.93982   0.00000   0.00002  -0.00007  -0.00005   1.93977
   A15        1.93022  -0.00001   0.00001  -0.00004  -0.00004   1.93018
   A16        1.89415   0.00000  -0.00002   0.00004   0.00003   1.89418
   A17        1.89073   0.00000  -0.00001   0.00002   0.00001   1.89075
   A18        1.88624   0.00000   0.00002  -0.00004  -0.00002   1.88622
   A19        1.90232   0.00002  -0.00003   0.00015   0.00012   1.90245
   A20        1.95121   0.00000  -0.00001   0.00004   0.00003   1.95124
   A21        1.95104  -0.00002   0.00003  -0.00018  -0.00015   1.95089
   A22        1.89483   0.00001   0.00003  -0.00006  -0.00003   1.89480
   A23        1.89487   0.00000  -0.00002   0.00007   0.00005   1.89492
   A24        1.86795  -0.00001   0.00000  -0.00002  -0.00002   1.86793
   A25        2.00247   0.00000   0.00000   0.00000   0.00000   2.00247
   A26        2.19974   0.00000  -0.00001   0.00001   0.00000   2.19974
   A27        1.89672   0.00000   0.00001  -0.00001   0.00000   1.89671
   A28        2.18673   0.00000   0.00000   0.00000   0.00000   2.18673
   A29        3.13566  -0.00004  -0.00010  -0.00048  -0.00058   3.13508
   A30        3.12087   0.00008   0.00041   0.00342   0.00383   3.12469
   A31        3.16296   0.00000   0.00002  -0.00001   0.00001   3.16297
   A32        3.18355  -0.00001  -0.00016   0.00013  -0.00003   3.18352
    D1        1.06436   0.00000   0.00139  -0.00311  -0.00172   1.06264
    D2       -1.10172   0.00000   0.00139  -0.00316  -0.00177  -1.10349
    D3        3.12499   0.00000   0.00137  -0.00311  -0.00174   3.12324
    D4       -3.12333   0.00000   0.00136  -0.00302  -0.00166  -3.12499
    D5        0.99378   0.00000   0.00136  -0.00307  -0.00171   0.99207
    D6       -1.06270   0.00001   0.00134  -0.00302  -0.00168  -1.06438
    D7       -1.02513   0.00001   0.00138  -0.00309  -0.00171  -1.02683
    D8        3.09198   0.00000   0.00139  -0.00314  -0.00176   3.09022
    D9        1.03550   0.00001   0.00137  -0.00310  -0.00173   1.03377
   D10        1.01378   0.00000   0.00014  -0.00089  -0.00074   1.01304
   D11        3.11302   0.00000   0.00012  -0.00082  -0.00069   3.11232
   D12       -1.07502   0.00000   0.00016  -0.00094  -0.00078  -1.07580
   D13       -3.09865  -0.00001   0.00015  -0.00089  -0.00074  -3.09938
   D14       -0.99941  -0.00001   0.00013  -0.00082  -0.00069  -1.00010
   D15        1.09574  -0.00001   0.00017  -0.00094  -0.00077   1.09496
   D16       -1.04826   0.00000   0.00016  -0.00087  -0.00071  -1.04897
   D17        1.05098   0.00001   0.00014  -0.00080  -0.00066   1.05032
   D18       -3.13706   0.00000   0.00018  -0.00093  -0.00075  -3.13781
   D19        1.93426   0.00000  -0.00022   0.00180   0.00158   1.93584
   D20       -2.24776  -0.00001  -0.00039   0.00033  -0.00006  -2.24782
   D21       -0.16497   0.00000  -0.00019   0.00133   0.00114  -0.16383
   D22       -0.23677   0.00000  -0.00017   0.00167   0.00150  -0.23527
   D23        1.86439  -0.00001  -0.00034   0.00020  -0.00014   1.86425
   D24       -2.33600   0.00000  -0.00015   0.00121   0.00106  -2.33494
   D25       -2.29165   0.00002  -0.00009   0.00246   0.00236  -2.28928
   D26       -0.19049   0.00000  -0.00026   0.00098   0.00072  -0.18976
   D27        1.89231   0.00001  -0.00007   0.00199   0.00193   1.89423
   D28       -3.14142   0.00002  -0.00025   0.00137   0.00112  -3.14031
   D29        1.01252   0.00000  -0.00024   0.00127   0.00103   1.01355
   D30       -1.01237   0.00000  -0.00024   0.00128   0.00104  -1.01134
   D31        0.00057   0.00000  -0.00012   0.00032   0.00020   0.00077
   D32       -3.14109   0.00000  -0.00010   0.00029   0.00019  -3.14090
   D33        3.14152   0.00000   0.00002  -0.00004  -0.00002   3.14150
         Item               Value     Threshold  Converged?
 Maximum Force            0.000080     0.000450     YES
 RMS     Force            0.000012     0.000300     YES
 Maximum Displacement     0.009050     0.001800     NO 
 RMS     Displacement     0.002851     0.001200     NO 
 Predicted change in Energy=-2.058039D-07
 GradGradGradGradGradGradGradGradGradGradGradGradGradGradGradGradGradGrad

                          Input orientation:                          
 ---------------------------------------------------------------------
 Center     Atomic      Atomic             Coordinates (Angstroms)
 Number     Number       Type             X           Y           Z
 ---------------------------------------------------------------------
      1          6           0        2.144638   -0.144646    1.328672
      2          6           0        1.363020   -0.038128    0.004270
      3          6           0       -0.062710   -0.609301    0.143463
      4          6           0        2.080296   -0.695535   -1.088184
      5          6           0        2.663750   -1.256198   -1.979798
      6          6           0        3.392928   -1.895842   -3.057996
      7          8           0        2.678390   -3.092021   -3.467673
      8          6           0        3.256006   -3.776258   -4.462226
      9          8           0        4.280351   -3.486002   -5.017556
     10          1           0        2.243979   -1.190795    1.633959
     11          1           0        3.148412    0.276634    1.229356
     12          1           0        1.619343    0.396613    2.121860
     13          1           0        1.273457    1.027365   -0.249637
     14          1           0       -0.603796   -0.081010    0.934664
     15          1           0       -0.622163   -0.504483   -0.789546
     16          1           0       -0.028013   -1.672221    0.400858
     17          1           0        3.495937   -1.236529   -3.926558
     18          1           0        4.404586   -2.181868   -2.750734
     19          1           0        2.635385   -4.656315   -4.691561
 ---------------------------------------------------------------------
                    Distance matrix (angstroms):
                    1          2          3          4          5
     1  C    0.000000
     2  C    1.541530   0.000000
     3  C    2.548139   1.542180   0.000000
     4  C    2.479680   1.462917   2.473230   0.000000
     5  C    3.528598   2.666856   3.515722   1.204051   0.000000
     6  C    4.885466   4.116929   4.883233   2.654035   1.450295
     7  O    5.654807   4.807375   5.168930   3.429698   2.363098
     8  C    6.925189   6.124263   6.500451   4.717765   3.586630
     9  O    7.483352   6.754066   7.333056   5.297822   4.100414
    10  H    1.094302   2.181884   2.807228   2.771667   3.638643
    11  H    1.093116   2.188045   3.503620   2.730747   3.589310
    12  H    1.094552   2.176900   2.784820   3.421937   4.543806
    13  H    2.150262   1.098984   2.149081   2.079071   3.184500
    14  H    2.777261   2.176197   1.094470   3.416710   4.533433
    15  H    3.503073   2.188282   1.092922   2.725614   3.574773
    16  H    2.813315   2.182319   1.094192   2.759734   3.617484
    17  H    5.534949   4.630001   5.442651   3.217620   2.117261
    18  H    5.089125   4.629989   5.550323   3.221115   2.117006
    19  H    7.539178   6.708010   6.858243   5.383329   4.349167
                    6          7          8          9         10
     6  C    0.000000
     7  O    1.452323   0.000000
     8  C    2.350866   1.338266   0.000000
     9  O    2.675071   2.263545   1.200801   0.000000
    10  H    4.881764   5.461686   6.698678   7.325124   0.000000
    11  H    4.812571   5.799211   6.987963   7.379881   1.770607
    12  H    5.935644   6.673458   7.965031   8.551429   1.774284
    13  H    4.574296   5.412849   6.689634   7.221147   3.067585
    14  H    5.933696   6.262548   7.594692   8.418895   3.135356
    15  H    4.816918   4.976079   6.263648   7.127424   3.815648
    16  H    4.869960   4.930109   6.233886   7.156187   2.629497
    17  H    1.095310   2.078895   2.606670   2.620251   5.699898
    18  H    1.095296   2.078974   2.605863   2.618145   4.987582
    19  H    3.295848   1.986647   1.101030   2.044950   7.223242
                   11         12         13         14         15
    11  H    0.000000
    12  H    1.774545   0.000000
    13  H    2.503293   2.478202   0.000000
    14  H    3.780716   2.565133   2.480957   0.000000
    15  H    4.347798   3.783201   2.496285   1.775547   0.000000
    16  H    3.817607   3.155267   3.066714   1.774381   1.770222
    17  H    5.384597   6.540040   4.856375   6.463320   5.228334
    18  H    4.843896   6.176433   5.134066   6.563509   5.650494
    19  H    7.723629   8.543251   7.340965   7.942299   6.563158
                   16         17         18         19
    16  H    0.000000
    17  H    5.597729   0.000000
    18  H    5.462619   1.761213   0.000000
    19  H    6.475433   3.608423   3.608292   0.000000
 Stoichiometry    C7H10O2
 Framework group  C1[X(C7H10O2)]
 Deg. of freedom    51
 Full point group                 C1      NOp   1
 Largest Abelian subgroup         C1      NOp   1
 Largest concise Abelian subgroup C1      NOp   1
                         Standard orientation:                         
 ---------------------------------------------------------------------
 Center     Atomic      Atomic             Coordinates (Angstroms)
 Number     Number       Type             X           Y           Z
 ---------------------------------------------------------------------
      1          6           0        3.358378   -1.031872    0.620642
      2          6           0        2.672550   -0.059685   -0.359566
      3          6           0        3.044263    1.405363   -0.053324
      4          6           0        1.220570   -0.238119   -0.353291
      5          6           0        0.024405   -0.373578   -0.329240
      6          6           0       -1.412219   -0.572229   -0.326940
      7          8           0       -2.048849    0.586401    0.274325
      8          6           0       -3.384147    0.522397    0.336283
      9          8           0       -4.066624   -0.386008   -0.052236
     10          1           0        3.044602   -0.826985    1.648778
     11          1           0        3.105068   -2.069694    0.388988
     12          1           0        4.445788   -0.920461    0.564331
     13          1           0        3.032321   -0.291757   -1.371729
     14          1           0        4.129760    1.536104   -0.102991
     15          1           0        2.579132    2.087913   -0.769045
     16          1           0        2.709416    1.685690    0.949945
     17          1           0       -1.806763   -0.700028   -1.340699
     18          1           0       -1.698419   -1.462589    0.243167
     19          1           0       -3.759923    1.445011    0.805156
 ---------------------------------------------------------------------
 Rotational constants (GHZ):      5.2470900      0.5246653      0.4976478
 Standard basis: 6-31G(2df,p) (6D, 7F)
 There are   329 symmetry adapted cartesian basis functions of A   symmetry.
 There are   302 symmetry adapted basis functions of A   symmetry.
   302 basis functions,   466 primitive gaussians,   329 cartesian basis functions
    34 alpha electrons       34 beta electrons
       nuclear repulsion energy       400.8183569878 Hartrees.
 NAtoms=   19 NActive=   19 NUniq=   19 SFac= 1.00D+00 NAtFMM=   60 NAOKFM=F Big=F
 Integral buffers will be    131072 words long.
 Raffenetti 2 integral format.
 Two-electron integral symmetry is turned on.
 One-electron integrals computed using PRISM.
 NBasis=   302 RedAO= T EigKep=  5.12D-05  NBF=   302
 NBsUse=   302 1.00D-06 EigRej= -1.00D+00 NBFU=   302
 Initial guess from the checkpoint file:  "/scratch/puck/g09_700ad893-d52d-416f-9b48-8f3820161e07/Gau-162488.chk"
 B after Tr=     0.000000    0.000000    0.000000
         Rot=    1.000000    0.000708   -0.000053   -0.000115 Ang=   0.08 deg.
 Requested convergence on RMS density matrix=1.00D-08 within 128 cycles.
 Requested convergence on MAX density matrix=1.00D-06.
 Requested convergence on             energy=1.00D-06.
 No special actions if energy rises.
 SCF Done:  E(RB3LYP) =  -423.186199116     A.U. after    8 cycles
            NFock=  8  Conv=0.67D-08     -V/T= 2.0075
 Calling FoFJK, ICntrl=      2127 FMM=F ISym2X=0 I1Cent= 0 IOpClX= 0 NMat=1 NMatS=1 NMatT=0.
 ***** Axes restored to original set *****
 -------------------------------------------------------------------
 Center     Atomic                   Forces (Hartrees/Bohr)
 Number     Number              X              Y              Z
 -------------------------------------------------------------------
      1        6          -0.000004849    0.000014312    0.000006262
      2        6           0.000054529   -0.000002357    0.000023006
      3        6           0.000006313   -0.000007147   -0.000006815
      4        6          -0.000017627   -0.000014694   -0.000000684
      5        6          -0.000124107   -0.000005671   -0.000086871
      6        6           0.000095673   -0.000012731    0.000066874
      7        8          -0.000018143    0.000031550    0.000009483
      8        6           0.000016403   -0.000007896    0.000010591
      9        8          -0.000001417    0.000002015   -0.000004657
     10        1           0.000011034    0.000002333   -0.000007567
     11        1          -0.000008023    0.000004754    0.000001314
     12        1          -0.000012983   -0.000007303    0.000008495
     13        1           0.000001765    0.000004293   -0.000005630
     14        1           0.000003854    0.000002039   -0.000002291
     15        1          -0.000004641    0.000001507    0.000000773
     16        1           0.000000181    0.000001869    0.000001664
     17        1          -0.000006080    0.000010073    0.000009039
     18        1           0.000006724   -0.000014328   -0.000025703
     19        1           0.000001396   -0.000002617    0.000002718
 -------------------------------------------------------------------
 Cartesian Forces:  Max     0.000124107 RMS     0.000028072

 GradGradGradGradGradGradGradGradGradGradGradGradGradGradGradGradGradGrad
 Berny optimization.
 Using GEDIIS/GDIIS optimizer.
 FormGI is forming the generalized inverse of G from B-inverse, IUseBI=4.
 Internal  Forces:  Max     0.000175645 RMS     0.000025209
 Search for a local minimum.
 Step number   3 out of a maximum of   93
 All quantities printed in internal units (Hartrees-Bohrs-Radians)
 Mixed Optimization -- En-DIIS/RFO-DIIS
 Swapping is turned off.
 Update second derivatives using D2CorX and points    1    2    3
 DE=  2.28D-07 DEPred=-2.06D-07 R=-1.11D+00
 Trust test=-1.11D+00 RLast= 8.18D-03 DXMaxT set to 1.50D-01
 ITU= -1  0  0
     Eigenvalues ---    0.00136   0.00230   0.00295   0.00934   0.01292
     Eigenvalues ---    0.02502   0.03061   0.03305   0.03576   0.03836
     Eigenvalues ---    0.04271   0.04736   0.05264   0.05438   0.05455
     Eigenvalues ---    0.05542   0.05550   0.06031   0.10034   0.11845
     Eigenvalues ---    0.13920   0.15928   0.16000   0.16000   0.16000
     Eigenvalues ---    0.16000   0.16004   0.16029   0.17100   0.17514
     Eigenvalues ---    0.21990   0.22398   0.25003   0.28323   0.28393
     Eigenvalues ---    0.33569   0.33783   0.34206   0.34211   0.34280
     Eigenvalues ---    0.34302   0.34313   0.34334   0.34464   0.34478
     Eigenvalues ---    0.36586   0.37991   0.38217   0.57593   1.02818
     Eigenvalues ---    1.04405
 En-DIIS/RFO-DIIS IScMMF=        0 using points:     3    2    1
 RFO step:  Lambda=-1.67079723D-07.
 DidBck=T Rises=F RFO-DIIS coefs:    0.28154    0.57625    0.14222
 Iteration  1 RMS(Cart)=  0.00192107 RMS(Int)=  0.00000108
 Iteration  2 RMS(Cart)=  0.00000263 RMS(Int)=  0.00000013
 Iteration  3 RMS(Cart)=  0.00000000 RMS(Int)=  0.00000013
 Variable       Old X    -DE/DX   Delta X   Delta X   Delta X     New X
                                 (Linear)    (Quad)   (Total)
    R1        2.91307   0.00000  -0.00001   0.00000  -0.00001   2.91306
    R2        2.06793   0.00000  -0.00002   0.00001  -0.00001   2.06793
    R3        2.06569  -0.00001   0.00000  -0.00001  -0.00001   2.06568
    R4        2.06840   0.00001   0.00002   0.00000   0.00001   2.06842
    R5        2.91430  -0.00001   0.00001  -0.00002   0.00000   2.91429
    R6        2.76451   0.00000  -0.00002   0.00002  -0.00001   2.76451
    R7        2.07678   0.00000   0.00002  -0.00001   0.00001   2.07679
    R8        2.06825   0.00000   0.00000   0.00000   0.00000   2.06825
    R9        2.06532   0.00000   0.00000   0.00000   0.00000   2.06532
   R10        2.06772   0.00000   0.00000   0.00000   0.00000   2.06772
   R11        2.27533   0.00000   0.00000   0.00000   0.00000   2.27533
   R12        2.74066  -0.00001   0.00000   0.00000  -0.00001   2.74065
   R13        2.74449  -0.00002  -0.00002   0.00000  -0.00002   2.74447
   R14        2.06984   0.00000  -0.00001   0.00000   0.00000   2.06983
   R15        2.06981   0.00000   0.00000   0.00000   0.00000   2.06981
   R16        2.52896   0.00000   0.00001  -0.00001   0.00000   2.52896
   R17        2.26918   0.00000   0.00001   0.00000   0.00000   2.26919
   R18        2.08064   0.00000   0.00000   0.00000   0.00000   2.08065
    A1        1.93026   0.00000  -0.00001   0.00000  -0.00001   1.93024
    A2        1.94004   0.00000   0.00002  -0.00001   0.00001   1.94005
    A3        1.92313   0.00000  -0.00004   0.00003  -0.00001   1.92313
    A4        1.88643   0.00000  -0.00005   0.00003  -0.00003   1.88641
    A5        1.89035   0.00000   0.00003  -0.00003   0.00001   1.89036
    A6        1.89226   0.00000   0.00005  -0.00002   0.00003   1.89229
    A7        1.94509   0.00000  -0.00005   0.00001  -0.00003   1.94506
    A8        1.94113   0.00003   0.00004   0.00001   0.00005   1.94118
    A9        1.88264   0.00001   0.00002  -0.00002   0.00000   1.88264
   A10        1.93291  -0.00002  -0.00003   0.00000  -0.00002   1.93288
   A11        1.88031  -0.00001   0.00002  -0.00004  -0.00002   1.88028
   A12        1.87875   0.00000  -0.00001   0.00003   0.00002   1.87878
   A13        1.92146  -0.00001  -0.00006   0.00003  -0.00003   1.92144
   A14        1.93977   0.00001   0.00005  -0.00002   0.00002   1.93980
   A15        1.93018   0.00000   0.00003  -0.00002   0.00001   1.93019
   A16        1.89418   0.00000  -0.00003   0.00001  -0.00002   1.89416
   A17        1.89075   0.00000  -0.00001   0.00001  -0.00001   1.89074
   A18        1.88622   0.00000   0.00002   0.00000   0.00002   1.88624
   A19        1.90245  -0.00005  -0.00010   0.00003  -0.00007   1.90237
   A20        1.95124  -0.00001  -0.00002  -0.00002  -0.00005   1.95119
   A21        1.95089   0.00006   0.00012  -0.00001   0.00011   1.95100
   A22        1.89480  -0.00002   0.00004  -0.00004   0.00000   1.89480
   A23        1.89492   0.00001  -0.00005   0.00003  -0.00002   1.89490
   A24        1.86793   0.00001   0.00001   0.00001   0.00002   1.86795
   A25        2.00247   0.00000   0.00000  -0.00001  -0.00001   2.00247
   A26        2.19974   0.00000  -0.00001   0.00000   0.00000   2.19974
   A27        1.89671   0.00000   0.00001   0.00000   0.00000   1.89672
   A28        2.18673   0.00000   0.00000   0.00000   0.00000   2.18673
   A29        3.13508   0.00007   0.00036  -0.00003   0.00033   3.13541
   A30        3.12469  -0.00018  -0.00253  -0.00008  -0.00260   3.12209
   A31        3.16297   0.00001   0.00000   0.00014   0.00014   3.16311
   A32        3.18352  -0.00001  -0.00007  -0.00041  -0.00048   3.18304
    D1        1.06264   0.00001   0.00200   0.00002   0.00202   1.06466
    D2       -1.10349   0.00002   0.00204  -0.00001   0.00203  -1.10146
    D3        3.12324   0.00000   0.00201  -0.00004   0.00198   3.12522
    D4       -3.12499   0.00000   0.00194   0.00004   0.00198  -3.12300
    D5        0.99207   0.00002   0.00198   0.00002   0.00200   0.99407
    D6       -1.06438  -0.00001   0.00195  -0.00001   0.00194  -1.06244
    D7       -1.02683   0.00001   0.00199   0.00003   0.00203  -1.02481
    D8        3.09022   0.00002   0.00203   0.00001   0.00204   3.09226
    D9        1.03377   0.00000   0.00200  -0.00002   0.00198   1.03575
   D10        1.01304   0.00000   0.00061  -0.00057   0.00004   1.01308
   D11        3.11232  -0.00001   0.00057  -0.00055   0.00002   3.11234
[...]
 080735,0.04621529,0.07043833,-0.02723204,0.01397145,0.02648733,0.43016
 907,-0.00255736,-0.00195093,-0.00803507,0.04596577,-0.11004075,-0.0673
 8092,-0.00032230,0.00847339,0.00890020,-0.30909966,0.39152158,0.012051
 37,-0.01754864,-0.03600328,0.06941889,-0.06658368,-0.16330456,0.014212
 17,0.00073764,-0.00746309,-0.47428432,0.45698725,0.78604314,-0.0022597
 0,0.00110980,-0.00183324,0.00186768,0.00173200,0.00081306,0.00200118,0
 .00161195,0.00066972,-0.29402478,0.25040184,0.37944826,0.42968117,0.00
 184365,0.00010639,0.00189752,0.00256669,0.00111939,-0.00006484,-0.0022
 8493,-0.00191930,-0.00128337,0.25105037,-0.27262584,-0.36633181,-0.320
 68460,0.39661212,0.00231544,-0.00106332,0.00232570,0.00195657,-0.00061
 359,0.00140522,-0.00261503,-0.00322752,-0.00102746,0.37982314,-0.36522
 964,-0.58379981,-0.49028559,0.46972598,0.79669158,-0.00063674,0.000527
 87,0.00120727,0.00561757,0.00169279,0.00237089,0.00049318,-0.00103404,
 -0.00131008,-0.00200431,0.00054312,0.00294588,-0.13126049,0.05659418,0
 .08739048,0.51862715,-0.00052160,0.00019034,-0.00078310,0.00013574,0.0
 0456734,-0.00326303,0.00110607,0.00078927,0.00035759,0.00335400,-0.000
 90091,-0.00384232,0.05550524,-0.10320269,-0.06249465,-0.07431658,0.473
 84650,-0.00160754,0.00119469,0.00036726,0.00155038,-0.00431714,0.00303
 083,0.00062053,0.00141755,0.00098952,0.00464791,-0.00227399,-0.0030356
 6,0.08697858,-0.06337008,-0.17658569,-0.04383319,-0.05450605,0.5414779
 6,-0.00010526,0.00000604,-0.00012669,-0.00052752,-0.00080955,-0.000498
 84,-0.00014343,0.00023348,0.00031140,-0.00095258,0.00107290,0.00188786
 ,0.01634402,0.00995969,0.00213618,-0.12346779,-0.02916316,0.00200873,0
 .30681627,0.00056200,-0.00035838,0.00031125,0.00123733,0.00169147,0.00
 083728,-0.00028872,-0.00118814,-0.00101040,-0.00320845,0.00178157,0.00
 260349,-0.00455806,-0.02716926,-0.02591129,-0.05447249,-0.10055488,-0.
 00325954,0.03455346,0.29345685,0.00067838,-0.00041294,0.00021447,0.001
 28500,0.00222634,0.00091283,-0.00018906,-0.00125582,-0.00116585,-0.002
 12912,0.00048762,0.00230701,-0.01200966,-0.03372467,-0.02402205,-0.022
 46447,-0.01677175,-0.07132519,-0.08982291,0.19114465,0.31009584,0.0003
 8572,-0.00020932,0.00013300,0.00045574,0.00113031,0.00069525,-0.000038
 82,-0.00057542,-0.00056773,-0.00005145,-0.00026201,-0.00015119,-0.0055
 2246,-0.00543542,-0.00238616,0.02196418,-0.00015363,-0.01059170,-0.133
 00616,0.02242960,0.05924534,0.94131277,-0.00042078,0.00017873,-0.00001
 167,0.00043332,-0.00025513,-0.00046132,0.00017396,0.00029794,0.0002198
 8,0.00008781,-0.00007707,-0.00018960,-0.00285760,-0.00239726,-0.000762
 27,0.00274726,-0.03650111,-0.03915865,0.01260167,-0.15031302,-0.091222
 12,0.21164447,0.47712046,-0.00064063,0.00029311,-0.00004599,0.00025707
 ,-0.00092677,-0.00073676,0.00018470,0.00058966,0.00052555,0.00016307,-
 0.00006657,0.00000685,0.00017974,0.00061951,0.00052641,-0.00780767,-0.
 03762107,-0.02981403,0.04974125,-0.09644098,-0.18308656,-0.19498773,0.
 15936234,0.45426425,-0.00026459,0.00013516,-0.00008129,-0.00015627,-0.
 00058261,-0.00042828,0.00004284,0.00031692,0.00031578,0.00046389,-0.00
 010134,-0.00034103,0.00206670,0.00157138,0.00084227,-0.00893420,-0.011
 38188,-0.00994683,-0.04402187,0.02671905,0.06525983,-0.67867733,-0.125
 28077,0.20263563,0.75824963,0.00013252,-0.00005614,0.00001203,-0.00020
 060,-0.00007264,0.00017339,-0.00009437,-0.00009272,-0.00006158,-0.0000
 6156,0.00001409,-0.00003295,0.00223886,0.00124179,-0.00066583,0.003180
 52,-0.00051714,0.00446341,0.02540033,0.02628058,-0.01667710,-0.1178268
 5,-0.12121590,0.01793819,0.11610235,0.08336422,0.00031062,-0.00016005,
 -0.00000197,-0.00022603,0.00037104,0.00026491,-0.00009639,-0.00026687,
 -0.00021541,-0.00028834,0.00006526,0.00016527,0.00145698,-0.00033965,-
 0.00036203,0.00416466,0.01227447,0.00274922,0.06399420,-0.01736920,-0.
 02169312,0.20985855,0.02193685,-0.16581514,-0.27798954,-0.01071711,0.1
 6883565,-0.05190937,0.03305251,-0.01041646,-0.00375319,0.01662074,-0.0
 0610942,0.00108057,0.00153685,0.00038661,0.00005280,-0.00013270,0.0011
 0094,0.00013021,-0.00021623,-0.00016511,0.00001785,0.00008235,0.000037
 84,-0.00000839,-0.00004879,-0.00005026,-0.00000893,0.00003808,0.000047
 10,0.00000338,-0.00001385,-0.00002282,0.05330175,0.03389473,-0.2814624
 1,0.07744999,-0.00012378,0.00000626,-0.00025282,0.00000253,0.00072213,
 -0.00038952,0.00000491,0.00087228,-0.00018706,-0.00026702,0.00017214,0
 .00025371,0.00001937,-0.00016332,-0.00008185,-0.00002304,0.00009384,0.
 00007086,0.00005336,-0.00005219,-0.00006161,-0.00003645,0.00002368,0.0
 0002510,-0.03742000,0.30389534,-0.01031106,0.07556291,-0.07153329,-0.0
 0479836,0.02773851,-0.01153041,0.00160860,0.00042294,0.00099331,-0.000
 46008,0.00166682,0.00228488,0.00052472,-0.00071635,-0.00024497,-0.0000
 7850,-0.00001927,-0.00005625,0.00000536,0.00000814,0.00005394,0.000025
 87,-0.00003943,-0.00007417,-0.00002073,0.00000599,0.00003407,0.0151850
 1,-0.08532811,0.07854763,-0.25961565,-0.10235792,0.03186305,-0.0140058
 0,-0.00656442,0.00293924,-0.00075994,0.00072859,-0.00399977,0.00030259
 ,0.00065670,0.00102728,0.00050545,-0.00022570,-0.00038689,-0.00007083,
 0.00001337,0.00000727,0.00004208,-0.00002664,-0.00003241,-0.00005577,0
 .00000827,0.00003520,0.00004350,0.00000569,-0.00001377,0.00506854,0.00
 260585,-0.00045495,0.28184375,-0.10255942,-0.09671663,0.01527030,0.001
 84895,-0.00072522,-0.00016476,0.00014598,0.00044497,-0.00024424,-0.000
 38615,0.00016169,0.00023806,0.00025399,-0.00010435,-0.00002111,-0.0000
 2098,-0.00005274,-0.00011841,0.00002231,0.00007316,0.00008575,0.000011
 54,-0.00003503,-0.00005290,0.00000010,0.00001186,0.00002869,-0.0278041
 4,-0.01228812,0.00387312,0.11239379,0.10040751,0.03439446,0.01631436,-
 0.05160633,-0.02628063,-0.01359928,0.00302297,-0.00201628,0.00049811,-
 0.00561391,-0.00100936,0.00013979,0.00194812,0.00047083,0.00000001,-0.
 00009709,-0.00000965,-0.00012237,-0.00025764,-0.00000975,0.00013612,0.
 00015808,0.00007226,-0.00007375,-0.00011567,-0.00004238,0.00002533,0.0
 0005371,0.00913721,0.00329883,-0.00200337,-0.03294732,-0.01716375,0.05
 563386,-0.11481675,0.06781770,0.09400400,0.00735843,-0.00949150,-0.013
 34763,0.00135799,-0.00036590,-0.00033609,-0.00169963,0.00000192,-0.002
 57900,0.00077347,-0.00033841,-0.00059165,0.00015633,-0.00002055,0.0002
 1241,0.00000055,0.00000470,0.00000469,-0.00000183,0.00001120,0.0000098
 0,0.00000545,-0.00000526,-0.00000861,-0.00264082,0.00096236,0.00233053
 ,-0.01331644,0.01583722,0.01934695,0.12214944,0.06712087,-0.11530984,-
 0.09308292,-0.00023943,-0.00032512,0.00181266,0.00035768,-0.00024734,-
 0.00013930,0.00041392,0.00081690,-0.00052102,-0.00046958,0.00044891,0.
 00031992,0.00009287,-0.00000240,0.00000064,0.00000502,-0.00004694,-0.0
 0006936,-0.00003489,0.00006959,0.00009329,0.00002430,-0.00002045,-0.00
 003881,0.01538386,-0.01398995,-0.02182192,-0.00699543,0.00748007,0.010
 92421,-0.07447448,0.12053647,0.09210350,-0.09224270,-0.17402375,0.0141
 6818,-0.01448239,-0.02029391,0.00170295,0.00007621,0.00103527,-0.00353
 627,0.00006672,-0.00491699,0.00025640,-0.00020788,-0.00056008,0.000274
 22,0.00030408,0.00084060,0.00006779,-0.00037485,-0.00046568,-0.0002647
 1,0.00025459,0.00040064,0.00017430,-0.00007596,-0.00019223,-0.00589026
 ,0.00518563,0.00790214,0.00155905,-0.00159921,-0.00280106,-0.10006631,
 0.10255225,0.19168411,-0.00361291,0.01669682,-0.00764769,-0.04814421,0
 .03254898,-0.00876031,0.00039356,-0.03103064,0.00872017,-0.00516782,0.
 01897115,-0.00085629,0.00045906,-0.00008294,0.00032751,-0.00018264,-0.
 00089996,0.00054769,-0.00002986,0.00007114,0.00004162,0.00006376,-0.00
 018106,-0.00021393,-0.00005585,0.00007706,0.00009302,-0.00129353,-0.00
 035356,-0.00325176,0.00024677,0.00025789,0.00072997,0.00063287,-0.0005
 3769,0.00059249,0.05965019,0.00017445,-0.00002449,0.00085326,0.0311122
 5,-0.27004138,0.06637349,-0.00076055,-0.01418471,0.00437208,0.00663855
 ,-0.01817307,-0.00345705,-0.00040704,0.00092288,0.00096461,0.00015394,
 0.00091818,-0.00035190,0.00005545,-0.00026841,-0.00024987,-0.00019429,
 0.00018597,0.00029790,0.00014133,-0.00006762,-0.00013137,-0.00015552,0
 .00158080,-0.00031369,0.00045386,0.00043466,0.00012558,-0.00006990,0.0
 0047253,0.00045412,-0.03444923,0.29694606,-0.00595408,0.02783873,-0.01
 103370,-0.00777574,0.06338520,-0.06397582,-0.00053155,0.00438157,-0.00
 090459,0.00530950,-0.02699697,0.00397787,0.00117202,-0.00040900,-0.000
 97692,0.00002630,0.00179513,-0.00048394,0.00004972,-0.00037011,-0.0002
 6382,-0.00020730,0.00027757,0.00035487,0.00016135,-0.00012957,-0.00015
 147,-0.00333033,-0.00016373,-0.00483057,0.00027558,-0.00051619,0.00123
 155,0.00096488,-0.00006285,0.00098279,0.00887327,-0.06854084,0.0758271
 1,0.00134243,0.00122021,0.00119711,-0.01631678,0.01510856,0.02065679,-
 0.11199597,0.06601043,0.09107155,-0.00516422,-0.00316396,0.00034568,-0
 .00065767,0.00053661,0.00094303,0.00053638,-0.00048843,-0.00073473,-0.
 00015719,0.00063490,0.00068743,0.00035649,-0.00020404,-0.00038697,-0.0
 0020829,0.00006529,0.00016800,-0.00008520,-0.00001898,-0.00012560,0.00
 050638,-0.00025330,-0.00010778,-0.00015258,-0.00052689,-0.00104852,0.0
 0141492,0.00005717,-0.00022176,0.12327715,0.00049968,0.00024543,0.0003
 7397,-0.00884158,0.00618773,0.01063953,0.06750217,-0.11476988,-0.09390
 038,-0.00254323,-0.00067238,-0.00052313,-0.00036600,0.00074071,0.00083
 362,0.00015765,-0.00006669,-0.00020537,0.00001583,0.00014155,0.0001440
 4,0.00000919,0.00001823,0.00001245,0.00001796,-0.00000042,-0.00000009,
 0.00003684,-0.00004455,-0.00015057,0.00007769,-0.00001178,0.00026235,0
 .00014833,0.00016728,-0.00003528,0.00079533,0.00085316,0.00017921,-0.0
 7102241,0.12110667,-0.00083465,0.00015784,0.00054380,0.00116513,-0.002
 02405,-0.00366395,0.09247465,-0.09321362,-0.17760551,0.00116073,0.0004
 9192,0.00022288,0.00019422,0.00014665,0.00024753,-0.00014813,0.0001910
 0,0.00030787,0.00010042,-0.00024690,-0.00029570,-0.00020444,0.00014314
 ,0.00024710,0.00013661,-0.00003291,-0.00011098,-0.00000628,0.00004628,
 0.00003101,-0.00000770,0.00018582,0.00008623,0.00000781,-0.00007876,0.
 00042919,-0.00000117,0.00023564,-0.00014402,-0.10271156,0.10305897,0.1
 9047173,-0.00532752,-0.00295742,0.00262789,-0.01589294,0.00201473,-0.0
 2512282,-0.11678940,0.00478208,-0.11646774,0.00133424,-0.00031959,-0.0
 0173927,0.00012338,0.00037199,0.00064252,-0.00015230,0.00003927,0.0001
 6555,0.00009855,-0.00013326,-0.00015774,-0.00015684,0.00009559,0.00016
 184,0.00011574,-0.00001185,-0.00006767,0.00019353,0.00006051,0.0002859
 2,-0.00089520,-0.00013547,-0.00187116,0.00022553,-0.00014996,0.0000033
 9,0.00127702,0.00010396,0.00017768,0.00918826,-0.00128551,0.01443813,0
 .12846675,-0.00249784,-0.00100397,0.00097830,-0.00713417,-0.00068839,-
 0.01253260,0.00517613,-0.04748895,0.00800230,0.00067230,0.00012499,-0.
 00014153,-0.00005020,-0.00000542,0.00014180,0.00002414,0.00003277,-0.0
 0000996,-0.00004841,0.00000422,0.00002861,0.00006836,-0.00002515,-0.00
 006479,-0.00005854,-0.00000568,0.00003071,-0.00031675,0.00027086,-0.00
 024009,-0.00071354,0.00049036,-0.00070549,0.00012971,0.00005804,0.0004
 2471,0.00059789,0.00034937,-0.00054191,-0.00936799,0.00015171,-0.01405
 738,-0.00268187,0.04771242,0.00072667,0.00004996,0.00041716,0.00426615
 ,-0.00030233,0.00475250,-0.11918901,0.00731858,-0.24435552,0.00033131,
 -0.00016143,0.00084350,-0.00019813,0.00020574,0.00022322,0.00000280,-0
 .00011307,-0.00016933,0.00000101,0.00011245,0.00011526,0.00003280,-0.0
 0005046,-0.00007399,-0.00001540,0.00001981,0.00003401,0.00019988,-0.00
 005361,0.00004074,0.00010396,0.00015971,0.00040320,0.00013514,0.000250
 83,0.00028120,-0.00041183,-0.00053933,0.00032601,-0.01148821,0.0019126
 7,-0.01787053,0.12903097,-0.00835290,0.26232831,0.00204716,-0.00029724
 ,0.00117540,0.00059379,-0.03061478,0.00930283,-0.04908419,0.02663023,-
 0.00798933,0.00210338,-0.00116542,-0.00126783,-0.00013695,0.00058192,0
 .00020997,-0.00006922,0.00007223,0.00004600,0.00002077,-0.00006760,-0.
 00007791,-0.00004000,0.00004274,0.00006815,0.00002602,-0.00001131,-0.0
 0002579,-0.00014487,0.00067353,-0.00048314,0.00015009,0.00036741,0.000
 14560,-0.00008882,0.00005716,-0.00015257,-0.00552471,-0.00285627,0.000
 87057,-0.00188262,0.01478929,-0.00577072,-0.00180333,0.01622001,-0.003
 52990,0.05384381,0.00100189,0.00040061,0.00019712,0.00049611,-0.013588
 49,0.00392810,0.02460456,-0.28747099,0.07167575,0.00062172,0.00050885,
 -0.00088013,-0.00024863,0.00045771,0.00044124,-0.00000054,-0.00020149,
 -0.00010131,0.00000348,0.00011823,0.00008309,0.00002862,-0.00004876,-0
 .00004663,-0.00001222,0.00002751,0.00002047,-0.00061725,0.00029269,-0.
 00068421,-0.00002811,0.00044296,-0.00010746,-0.00005115,-0.00004545,-0
 .00000436,-0.00285398,0.00043610,0.00035639,0.00121307,-0.01407214,0.0
 0508944,0.00024009,0.00002771,-0.00051078,-0.02438570,0.31265306,0.000
 10442,-0.00112287,0.00035056,0.00000793,0.00420889,-0.00233933,-0.0074
 6055,0.07133350,-0.06880923,-0.00058410,0.00089181,0.00040666,-0.00000
 636,-0.00034081,-0.00015116,0.00010086,-0.00001396,-0.00000389,-0.0000
 7016,0.00002604,0.00009019,0.00011311,-0.00005074,-0.00011982,-0.00009
 321,-0.00000135,0.00004944,-0.00007768,0.00010874,0.00038488,0.0000656
 1,0.00005891,-0.00008803,0.00003048,-0.00008772,0.00004223,0.00089361,
 0.00009966,0.00055927,0.00156316,-0.02262924,0.00720385,-0.00206774,0.
 02703648,-0.00734856,0.00749454,-0.07952766,0.06976140,-0.00002292,-0.
 00002656,-0.00010178,0.00000645,0.00075994,-0.00033158,0.00004302,-0.0
 0001654,-0.00001820,0.00052339,0.00003690,-0.00008186,-0.00573752,-0.0
 0792416,0.01802801,-0.06132589,-0.03558737,0.04252942,-0.01014277,-0.0
 2429434,0.00779782,-0.00055902,0.00182424,0.00276631,0.00079304,-0.000
 50012,-0.00084839,0.00000304,-0.00001177,-0.00000251,0.00000131,0.0000
 0366,0.00000256,0.00000021,-0.00000828,-0.00000029,-0.00013650,0.00007
 305,0.00019354,0.00000062,0.00000521,0.00000395,-0.00001265,-0.0000101
 9,0.00000255,0.00000043,-0.00000442,-0.00001706,0.06996345,0.00006909,
 0.00005830,0.00012768,-0.00002786,-0.00075391,0.00076927,-0.00019912,-
 0.00006174,-0.00010247,0.00090161,-0.00076749,-0.00103334,0.00477166,0
 .01306778,-0.01235418,-0.03636028,-0.14546616,0.11729524,-0.01295279,-
 0.02867844,0.00541342,-0.00711861,0.00181027,0.00627814,0.00398474,0.0
 0152158,-0.00091247,-0.00001495,0.00002663,0.00001848,-0.00001692,-0.0
 0000579,-0.00000461,0.00000807,-0.00002621,-0.00001921,0.00025990,-0.0
 0028209,-0.00046915,0.00007920,-0.00002399,-0.00001650,0.00001040,-0.0
 0000360,0.00001465,-0.00002523,0.00002842,0.00002175,0.04839699,0.1665
 7767,0.00014161,0.00011851,0.00014139,0.00012381,-0.00107344,0.0006744
 5,-0.00025985,-0.00003412,-0.00008965,-0.00053492,0.00086274,0.0012994
 2,0.00906751,0.00788396,-0.02078352,0.04558854,0.12666357,-0.19065697,
 -0.00511285,-0.01565661,0.01179926,-0.00205605,-0.00063223,0.00256686,
 0.00094114,-0.00047295,-0.00075667,-0.00003304,0.00002438,0.00002315,-
 0.00002695,-0.00000545,-0.00000757,0.00000341,-0.00004296,-0.00004327,
 0.00028665,-0.00019807,-0.00051109,0.00007160,-0.00002263,-0.00002257,
 0.00000745,0.00000046,0.00001738,-0.00001858,0.00003374,0.00003081,-0.
 05065253,-0.12635491,0.20506607,-0.00023052,0.00010478,0.00001033,0.00
 039959,-0.00011244,0.00056239,0.00004218,0.00000770,-0.00003349,0.0009
 5232,-0.00058446,-0.00119096,-0.01487743,0.01175339,0.00168097,-0.2204
 4742,0.09131609,-0.07669099,-0.02066312,-0.00659553,-0.01516990,-0.002
 70045,0.00234305,0.00384419,0.00206238,0.00042510,-0.00052404,-0.00000
 556,-0.00002503,0.00001889,0.00000903,0.00001486,-0.00000734,0.0000564
 3,-0.00001548,0.00006390,-0.00000075,-0.00006278,-0.00003774,-0.000002
 20,0.00000846,0.00000671,0.00000989,-0.00001203,-0.00000169,-0.0000099
 7,-0.00000954,0.00000031,0.00693392,-0.00173884,0.00283858,0.24845669,
 0.00052660,-0.00025287,-0.00010991,-0.00077625,0.00039352,-0.00049042,
 -0.00009403,-0.00017075,0.00002484,-0.00009602,0.00093168,0.00058545,0
 .01247503,-0.00653705,0.00053430,0.09855447,-0.09765949,0.04647010,-0.
 02915527,0.00306478,-0.01872932,-0.00427673,0.00252579,0.00245831,0.00
 173949,-0.00025277,-0.00134640,-0.00000284,0.00003481,0.00001156,-0.00
 001758,-0.00001994,0.00003229,-0.00010139,-0.00002785,-0.00022045,0.00
 009272,-0.00002506,0.00003106,0.00004953,0.00002956,-0.00004924,-0.000
 03578,0.00000393,0.00002320,-0.00000304,0.00001972,-0.00000962,0.01722
 399,-0.00732670,0.00825109,-0.09651850,0.10625470,0.00055403,-0.000346
 87,-0.00020858,-0.00115522,0.00054787,-0.00074776,-0.00009204,-0.00016
 401,0.00001996,0.00055334,-0.00045390,-0.00099403,0.02352550,-0.012510
 84,0.00802570,-0.07345462,0.04051280,-0.07928659,-0.01310710,-0.003635
 97,-0.00933662,-0.00640055,0.00106208,0.00392543,0.00330823,0.00133028
 ,-0.00025391,0.00001327,0.00004363,-0.00002260,-0.00000713,-0.00002246
 ,0.00003712,-0.00011800,-0.00000393,-0.00025797,0.00001934,0.00003683,
 0.00006523,0.00005006,0.00003104,-0.00005485,-0.00003962,0.00000997,0.
 00002168,0.00001101,0.00002166,-0.00001407,-0.01885928,0.01207346,-0.0
 0796797,0.08473089,-0.03816316,0.08688843,0.00001312,-0.00000527,0.000
 00009,-0.00005045,-0.00003112,0.00000680,-0.00001301,0.00000175,0.0000
 0855,-0.00010330,0.00005851,0.00005342,0.00052468,0.00036254,0.0001343
 3,0.00113919,0.00090878,0.00405267,0.00990373,0.00748170,0.00710335,-0
 .14371959,-0.10310744,-0.05605713,-0.03155417,-0.02890194,0.00006538,-
 0.00000179,0.00000249,0.00000178,0.00000013,0.00000177,0.00000184,0.00
 000015,-0.00000356,-0.00000724,0.00001063,-0.00000844,-0.00001589,0.00
 000008,-0.00000489,-0.00000370,-0.00000273,0.00000300,0.00000093,-0.00
 000077,0.00000201,0.00000283,-0.00033161,-0.00002705,-0.00037554,0.000
 01496,0.00041558,0.00046790,0.16417075,0.00008931,-0.00005410,0.000009
 25,0.00002627,0.00016311,0.00010078,-0.00004103,-0.00012866,-0.0001080
 0,-0.00011447,0.00000142,0.00012035,-0.00019165,-0.00092866,-0.0008717
 6,0.00191673,0.00494463,-0.00308737,-0.01177742,-0.01812878,-0.0205714
 2,-0.09928828,-0.17128637,-0.05266159,-0.01329897,0.00981617,-0.003470
 58,-0.00000822,0.00000906,0.00000521,0.00000247,0.00001236,0.00001974,
 -0.00000268,-0.00000822,-0.00005601,0.00002019,-0.00003287,-0.00004454
 ,0.00007103,0.00001982,-0.00002730,-0.00000790,-0.00000520,0.00001631,
 -0.00000792,0.00001376,-0.00000181,0.00005977,0.00030547,0.00065492,-0
 .00029880,-0.00098599,-0.00036848,0.12285159,0.17627304,0.00007150,-0.
 00004335,0.00002462,0.00007051,0.00016470,0.00010519,-0.00003510,-0.00
 012787,-0.00010855,-0.00009818,0.00003838,0.00001180,-0.00042454,-0.00
 118005,-0.00083458,0.00503440,-0.00254801,0.00191192,-0.01155560,-0.03
 090357,-0.01409229,-0.05235864,-0.05060422,-0.08293585,0.01518355,0.00
 489889,0.01736664,-0.00000620,0.00001119,-0.00000011,0.00000066,0.0000
 0813,0.00001580,-0.00000283,-0.00000427,-0.00004324,0.00001765,-0.0000
 3103,-0.00004877,0.00007075,0.00001886,-0.00002307,-0.00000759,-0.0000
 0667,0.00001376,-0.00000830,0.00001554,-0.00000521,-0.00041069,-0.0007
 4525,-0.00077953,-0.00010101,0.00069633,0.00016139,0.04455965,0.080342
 29,0.07926007\\-0.00000049,-0.00000012,-0.00000153,0.00000315,0.000000
 42,0.00000080,-0.00000171,0.00000063,-0.00000031,-0.00000129,0.0000001
 6,0.00000003,0.00000043,0.00000031,0.00000082,-0.00000090,-0.00000174,
 -0.00000098,0.00000021,-0.00000022,0.00000012,-0.00000180,-0.00000042,
 0.00000056,-0.00000041,-0.00000133,0.00000042,0.00000031,0.00000024,0.
 00000039,0.00000058,-0.00000033,0.00000010,0.00000062,0.00000029,0.000
 00002,0.00000128,0.00000045,-0.00000023,0.00000048,0.00000154,-0.00000
 043,0.00000083,0.00000169,-0.00000036,-0.00000020,0.00000097,-0.000000
 03,0.00000026,-0.00000114,0.,-0.00000011,-0.00000108,0.00000044,-0.000
 00123,-0.00000032,0.00000015\\\@


 I KNOW YOU BELIEVE YOU UNDERSTAND WHAT YOU THINK I SAID,
 BUT I AM NOT SURE YOU REALIZE THAT WHAT YOU HEARD IS NOT WHAT I MEANT.
 Job cpu time:       0 days  0 hours 29 minutes 31.0 seconds.
 File lengths (MBytes):  RWF=    152 Int=      0 D2E=      0 Chk=      8 Scr=      1
 Normal termination of Gaussian 09 at Mon Jan 27 16:45:36 2020.
