 Entering Gaussian System, Link 0=/home/puck/opt/gaussian_09/g09
 Input=dsC7O2H10nsd_0264.com
 Output=dsC7O2H10nsd_0264.log
 Initial command:
 /home/puck/opt/gaussian_09/l1.exe "/scratch/puck/g09_6ef60231-b748-4f1b-b161-b0bc9532b24a/Gau-149664.inp" -scrdir="/scratch/puck/g09_6ef60231-b748-4f1b-b161-b0bc9532b24a/"
 Entering Link 1 = /home/puck/opt/gaussian_09/l1.exe PID=    149670.
  
 Copyright (c) 1988,1990,1992,1993,1995,1998,2003,2009,2013,
            Gaussian, Inc.  All Rights Reserved.
  
 This is part of the Gaussian(R) 09 program.  It is based on
 the Gaussian(R) 03 system (copyright 2003, Gaussian, Inc.),
 the Gaussian(R) 98 system (copyright 1998, Gaussian, Inc.),
 the Gaussian(R) 94 system (copyright 1995, Gaussian, Inc.),
 the Gaussian 92(TM) system (copyright 1992, Gaussian, Inc.),
 the Gaussian 90(TM) system (copyright 1990, Gaussian, Inc.),
 the Gaussian 88(TM) system (copyright 1988, Gaussian, Inc.),
 the Gaussian 86(TM) system (copyright 1986, Carnegie Mellon
 University), and the Gaussian 82(TM) system (copyright 1983,
 Carnegie Mellon University). Gaussian is a federally registered
 trademark of Gaussian, Inc.
  
 This software contains proprietary and confidential information,
 including trade secrets, belonging to Gaussian, Inc.
  
 This software is provided under written license and may be
 used, copied, transmitted, or stored only in accord with that
 written license.
  
 The following legend is applicable only to US Government
 contracts under FAR:
  
                    RESTRICTED RIGHTS LEGEND
  
 Use, reproduction and disclosure by the US Government is
 subject to restrictions as set forth in subparagraphs (a)
 and (c) of the Commercial Computer Software - Restricted
 Rights clause in FAR 52.227-19.
  
 Gaussian, Inc.
 340 Quinnipiac St., Bldg. 40, Wallingford CT 06492
  
  
 ---------------------------------------------------------------
 Warning -- This program may not be used in any manner that
 competes with the business of Gaussian, Inc. or will provide
 assistance to any competitor of Gaussian, Inc.  The licensee
 of this program is prohibited from giving any competitor of
 Gaussian, Inc. access to this program.  By using this program,
 the user acknowledges that Gaussian, Inc. is engaged in the
 business of creating and licensing software in the field of
 computational chemistry and represents and warrants to the
 licensee that it is not a competitor of Gaussian, Inc. and that
 it will not use this program in any manner prohibited above.
 ---------------------------------------------------------------
  

 Cite this work as:
 Gaussian 09, Revision D.01,
 M. J. Frisch, G. W. Trucks, H. B. Schlegel, G. E. Scuseria, 
 M. A. Robb, J. R. Cheeseman, G. Scalmani, V. Barone, B. Mennucci, 
 G. A. Petersson, H. Nakatsuji, M. Caricato, X. Li, H. P. Hratchian, 
 A. F. Izmaylov, J. Bloino, G. Zheng, J. L. Sonnenberg, M. Hada, 
 M. Ehara, K. Toyota, R. Fukuda, J. Hasegawa, M. Ishida, T. Nakajima, 
 Y. Honda, O. Kitao, H. Nakai, T. Vreven, J. A. Montgomery, Jr., 
 J. E. Peralta, F. Ogliaro, M. Bearpark, J. J. Heyd, E. Brothers, 
 K. N. Kudin, V. N. Staroverov, T. Keith, R. Kobayashi, J. Normand, 
 K. Raghavachari, A. Rendell, J. C. Burant, S. S. Iyengar, J. Tomasi, 
 M. Cossi, N. Rega, J. M. Millam, M. Klene, J. E. Knox, J. B. Cross, 
 V. Bakken, C. Adamo, J. Jaramillo, R. Gomperts, R. E. Stratmann, 
 O. Yazyev, A. J. Austin, R. Cammi, C. Pomelli, J. W. Ochterski, 
 R. L. Martin, K. Morokuma, V. G. Zakrzewski, G. A. Voth, 
 P. Salvador, J. J. Dannenberg, S. Dapprich, A. D. Daniels, 
 O. Farkas, J. B. Foresman, J. V. Ortiz, J. Cioslowski, 
 and D. J. Fox, Gaussian, Inc., Wallingford CT, 2013.
 
 ******************************************
 Gaussian 09:  ES64L-G09RevD.01 24-Apr-2013
                27-Jan-2020 
 ******************************************
 -----------------------------
 # b3lyp 6-31G(2df,p) opt Freq
 -----------------------------
 1/14=-1,18=20,19=15,26=3,38=1/1,3;
 2/9=110,12=2,17=6,18=5,40=1/2;
 3/5=1,6=6,7=104,11=2,16=1,25=1,30=1,71=1,74=-5/1,2,3;
 4//1;
 5/5=2,38=5/2;
 6/7=2,8=2,9=2,10=2,28=1/1;
 7//1,2,3,16;
 1/14=-1,18=20,19=15,26=3/3(2);
 2/9=110/2;
 99//99;
 2/9=110/2;
 3/5=1,6=6,7=104,11=2,16=1,25=1,30=1,71=1,74=-5/1,2,3;
 4/5=5,16=3,69=1/1;
 5/5=2,38=5/2;
 7//1,2,3,16;
 1/14=-1,18=20,19=15,26=3/3(-5);
 2/9=110/2;
 6/7=2,8=2,9=2,10=2,19=2,28=1/1;
 99/9=1/99;
 -----
 titel
 -----
 Symbolic Z-matrix:
 Charge =  0 Multiplicity = 1
 C                     3.01708   1.43359   1.48022 
 C                     2.741     2.16769   0.14204 
 C                     1.84741   1.1593   -0.51905 
 C                     1.3787    0.92342  -1.95374 
 C                     0.56781  -0.39455  -1.64944 
 C                     0.79302  -0.4431   -0.11451 
 O                     0.59836   0.95487   0.24373 
 C                     2.32051  -0.22196  -0.01737 
 O                     2.92046   0.01875   1.2285 
 H                     4.0138    1.63852   1.88396 
 H                     2.26697   1.71948   2.22483 
 H                     2.271     3.14158   0.29765 
 H                     3.65593   2.30563  -0.44416 
 H                     0.74351   1.73101  -2.32246 
 H                     2.20203   0.77107  -2.65663 
 H                    -0.4931   -0.2973   -1.88584 
 H                     0.96363  -1.26977  -2.17283 
 H                     0.2248   -1.15181   0.48755 
 H                     2.96554  -0.85599  -0.63679 
 

 GradGradGradGradGradGradGradGradGradGradGradGradGradGradGradGradGradGrad
 Berny optimization.
 Initialization pass.
                           ----------------------------
                           !    Initial Parameters    !
                           ! (Angstroms and Degrees)  !
 --------------------------                            --------------------------
 ! Name  Definition              Value          Derivative Info.                !
 --------------------------------------------------------------------------------
 ! R1    R(1,2)                  1.5511         estimate D2E/DX2                !
 ! R2    R(1,9)                  1.4403         estimate D2E/DX2                !
 ! R3    R(1,10)                 1.0947         estimate D2E/DX2                !
 ! R4    R(1,11)                 1.0949         estimate D2E/DX2                !
 ! R5    R(2,3)                  1.5008         estimate D2E/DX2                !
 ! R6    R(2,12)                 1.0925         estimate D2E/DX2                !
 ! R7    R(2,13)                 1.0953         estimate D2E/DX2                !
 ! R8    R(3,4)                  1.5276         estimate D2E/DX2                !
 ! R9    R(3,7)                  1.4778         estimate D2E/DX2                !
 ! R10   R(3,8)                  1.5438         estimate D2E/DX2                !
 ! R11   R(4,5)                  1.5771         estimate D2E/DX2                !
 ! R12   R(4,14)                 1.0916         estimate D2E/DX2                !
 ! R13   R(4,15)                 1.0932         estimate D2E/DX2                !
 ! R14   R(5,6)                  1.5521         estimate D2E/DX2                !
 ! R15   R(5,16)                 1.0913         estimate D2E/DX2                !
 ! R16   R(5,17)                 1.0939         estimate D2E/DX2                !
 ! R17   R(6,7)                  1.4562         estimate D2E/DX2                !
 ! R18   R(6,8)                  1.5465         estimate D2E/DX2                !
 ! R19   R(6,18)                 1.0898         estimate D2E/DX2                !
 ! R20   R(8,9)                  1.4036         estimate D2E/DX2                !
 ! R21   R(8,19)                 1.0962         estimate D2E/DX2                !
 ! A1    A(2,1,9)              107.5891         estimate D2E/DX2                !
 ! A2    A(2,1,10)             113.0559         estimate D2E/DX2                !
 ! A3    A(2,1,11)             109.9502         estimate D2E/DX2                !
 ! A4    A(9,1,10)             108.024          estimate D2E/DX2                !
 ! A5    A(9,1,11)             109.2322         estimate D2E/DX2                !
 ! A6    A(10,1,11)            108.9089         estimate D2E/DX2                !
 ! A7    A(1,2,3)               99.672          estimate D2E/DX2                !
 ! A8    A(1,2,12)             112.0601         estimate D2E/DX2                !
 ! A9    A(1,2,13)             111.8795         estimate D2E/DX2                !
 ! A10   A(3,2,12)             113.925          estimate D2E/DX2                !
 ! A11   A(3,2,13)             110.2567         estimate D2E/DX2                !
 ! A12   A(12,2,13)            108.8632         estimate D2E/DX2                !
 ! A13   A(2,3,4)              134.4371         estimate D2E/DX2                !
 ! A14   A(2,3,7)              111.6442         estimate D2E/DX2                !
 ! A15   A(2,3,8)              105.9946         estimate D2E/DX2                !
 ! A16   A(4,3,7)              101.7751         estimate D2E/DX2                !
 ! A17   A(4,3,8)              105.1333         estimate D2E/DX2                !
 ! A18   A(7,3,8)               88.1383         estimate D2E/DX2                !
 ! A19   A(3,4,5)               96.0608         estimate D2E/DX2                !
 ! A20   A(3,4,14)             112.4282         estimate D2E/DX2                !
 ! A21   A(3,4,15)             113.2204         estimate D2E/DX2                !
 ! A22   A(5,4,14)             112.5974         estimate D2E/DX2                !
 ! A23   A(5,4,15)             113.2556         estimate D2E/DX2                !
 ! A24   A(14,4,15)            108.9144         estimate D2E/DX2                !
 ! A25   A(4,5,6)               98.1837         estimate D2E/DX2                !
 ! A26   A(4,5,16)             112.5558         estimate D2E/DX2                !
 ! A27   A(4,5,17)             112.971          estimate D2E/DX2                !
 ! A28   A(6,5,16)             110.9824         estimate D2E/DX2                !
 ! A29   A(6,5,17)             113.3057         estimate D2E/DX2                !
 ! A30   A(16,5,17)            108.6287         estimate D2E/DX2                !
 ! A31   A(5,6,7)              101.1783         estimate D2E/DX2                !
 ! A32   A(5,6,8)              101.5933         estimate D2E/DX2                !
 ! A33   A(5,6,18)             119.4077         estimate D2E/DX2                !
 ! A34   A(7,6,8)               88.8143         estimate D2E/DX2                !
 ! A35   A(7,6,18)             114.7529         estimate D2E/DX2                !
 ! A36   A(8,6,18)             124.9809         estimate D2E/DX2                !
 ! A37   A(3,7,6)               83.848          estimate D2E/DX2                !
 ! A38   A(3,8,6)               78.746          estimate D2E/DX2                !
 ! A39   A(3,8,9)              105.4259         estimate D2E/DX2                !
 ! A40   A(3,8,19)             120.9418         estimate D2E/DX2                !
 ! A41   A(6,8,9)              120.1635         estimate D2E/DX2                !
 ! A42   A(6,8,19)             117.5801         estimate D2E/DX2                !
 ! A43   A(9,8,19)             110.44           estimate D2E/DX2                !
 ! A44   A(1,9,8)              110.6263         estimate D2E/DX2                !
 ! D1    D(9,1,2,3)             28.2568         estimate D2E/DX2                !
 ! D2    D(9,1,2,12)           149.1173         estimate D2E/DX2                !
 ! D3    D(9,1,2,13)           -88.2897         estimate D2E/DX2                !
 ! D4    D(10,1,2,3)           147.4461         estimate D2E/DX2                !
 ! D5    D(10,1,2,12)          -91.6933         estimate D2E/DX2                !
 ! D6    D(10,1,2,13)           30.8997         estimate D2E/DX2                !
 ! D7    D(11,1,2,3)           -90.604          estimate D2E/DX2                !
 ! D8    D(11,1,2,12)           30.2566         estimate D2E/DX2                !
 ! D9    D(11,1,2,13)          152.8496         estimate D2E/DX2                !
 ! D10   D(2,1,9,8)            -13.5911         estimate D2E/DX2                !
 ! D11   D(10,1,9,8)          -135.9478         estimate D2E/DX2                !
 ! D12   D(11,1,9,8)           105.7289         estimate D2E/DX2                !
 ! D13   D(1,2,3,4)           -163.2928         estimate D2E/DX2                !
 ! D14   D(1,2,3,7)             62.5537         estimate D2E/DX2                !
 ! D15   D(1,2,3,8)            -31.8847         estimate D2E/DX2                !
 ! D16   D(12,2,3,4)            77.2074         estimate D2E/DX2                !
 ! D17   D(12,2,3,7)           -56.9462         estimate D2E/DX2                !
 ! D18   D(12,2,3,8)          -151.3845         estimate D2E/DX2                !
 ! D19   D(13,2,3,4)           -45.5275         estimate D2E/DX2                !
 ! D20   D(13,2,3,7)          -179.6811         estimate D2E/DX2                !
 ! D21   D(13,2,3,8)            85.8805         estimate D2E/DX2                !
 ! D22   D(2,3,4,5)            176.5406         estimate D2E/DX2                !
 ! D23   D(2,3,4,14)           -65.9522         estimate D2E/DX2                !
 ! D24   D(2,3,4,15)            58.0116         estimate D2E/DX2                !
 ! D25   D(7,3,4,5)            -46.3987         estimate D2E/DX2                !
 ! D26   D(7,3,4,14)            71.1084         estimate D2E/DX2                !
 ! D27   D(7,3,4,15)          -164.9277         estimate D2E/DX2                !
 ! D28   D(8,3,4,5)             44.8618         estimate D2E/DX2                !
 ! D29   D(8,3,4,14)           162.3689         estimate D2E/DX2                !
 ! D30   D(8,3,4,15)           -73.6672         estimate D2E/DX2                !
 ! D31   D(2,3,7,6)           -140.5234         estimate D2E/DX2                !
 ! D32   D(4,3,7,6)             71.0307         estimate D2E/DX2                !
 ! D33   D(8,3,7,6)            -34.0418         estimate D2E/DX2                !
 ! D34   D(2,3,8,6)            144.2992         estimate D2E/DX2                !
 ! D35   D(2,3,8,9)             25.8382         estimate D2E/DX2                !
 ! D36   D(2,3,8,19)          -100.1631         estimate D2E/DX2                !
 ! D37   D(4,3,8,6)            -69.3954         estimate D2E/DX2                !
 ! D38   D(4,3,8,9)            172.1435         estimate D2E/DX2                !
 ! D39   D(4,3,8,19)            46.1423         estimate D2E/DX2                !
 ! D40   D(7,3,8,6)             32.3007         estimate D2E/DX2                !
 ! D41   D(7,3,8,9)            -86.1603         estimate D2E/DX2                !
 ! D42   D(7,3,8,19)           147.8384         estimate D2E/DX2                !
 ! D43   D(3,4,5,6)              2.3234         estimate D2E/DX2                !
 ! D44   D(3,4,5,16)           119.1609         estimate D2E/DX2                !
 ! D45   D(3,4,5,17)          -117.3524         estimate D2E/DX2                !
 ! D46   D(14,4,5,6)          -115.0487         estimate D2E/DX2                !
 ! D47   D(14,4,5,16)            1.7889         estimate D2E/DX2                !
 ! D48   D(14,4,5,17)          125.2755         estimate D2E/DX2                !
 ! D49   D(15,4,5,6)           120.8246         estimate D2E/DX2                !
 ! D50   D(15,4,5,16)         -122.3379         estimate D2E/DX2                !
 ! D51   D(15,4,5,17)            1.1488         estimate D2E/DX2                !
 ! D52   D(4,5,6,7)             42.6963         estimate D2E/DX2                !
 ! D53   D(4,5,6,8)            -48.3928         estimate D2E/DX2                !
 ! D54   D(4,5,6,18)           169.6604         estimate D2E/DX2                !
 ! D55   D(16,5,6,7)           -75.3513         estimate D2E/DX2                !
 ! D56   D(16,5,6,8)          -166.4404         estimate D2E/DX2                !
 ! D57   D(16,5,6,18)           51.6129         estimate D2E/DX2                !
 ! D58   D(17,5,6,7)           162.1197         estimate D2E/DX2                !
 ! D59   D(17,5,6,8)            71.0306         estimate D2E/DX2                !
 ! D60   D(17,5,6,18)          -70.9161         estimate D2E/DX2                !
 ! D61   D(5,6,7,3)            -67.6206         estimate D2E/DX2                !
 ! D62   D(8,6,7,3)             33.9634         estimate D2E/DX2                !
 ! D63   D(18,6,7,3)           162.4183         estimate D2E/DX2                !
 ! D64   D(5,6,8,3)             68.3418         estimate D2E/DX2                !
 ! D65   D(5,6,8,9)            169.7641         estimate D2E/DX2                !
 ! D66   D(5,6,8,19)           -50.8359         estimate D2E/DX2                !
 ! D67   D(7,6,8,3)            -32.8268         estimate D2E/DX2                !
 ! D68   D(7,6,8,9)             68.5955         estimate D2E/DX2                !
 ! D69   D(7,6,8,19)          -152.0045         estimate D2E/DX2                !
 ! D70   D(18,6,8,3)          -152.6056         estimate D2E/DX2                !
 ! D71   D(18,6,8,9)           -51.1833         estimate D2E/DX2                !
 ! D72   D(18,6,8,19)           88.2167         estimate D2E/DX2                !
 ! D73   D(3,8,9,1)             -7.1148         estimate D2E/DX2                !
 ! D74   D(6,8,9,1)            -92.8827         estimate D2E/DX2                !
 ! D75   D(19,8,9,1)           125.1114         estimate D2E/DX2                !
 --------------------------------------------------------------------------------
 Trust Radius=3.00D-01 FncErr=1.00D-07 GrdErr=1.00D-06
 Number of steps in this run=    114 maximum allowed number of steps=    114.
 GradGradGradGradGradGradGradGradGradGradGradGradGradGradGradGradGradGrad

                          Input orientation:                          
 ---------------------------------------------------------------------
 Center     Atomic      Atomic             Coordinates (Angstroms)
 Number     Number       Type             X           Y           Z
 ---------------------------------------------------------------------
      1          6           0        3.017076    1.433586    1.480225
      2          6           0        2.741005    2.167685    0.142038
      3          6           0        1.847414    1.159299   -0.519051
      4          6           0        1.378696    0.923421   -1.953744
      5          6           0        0.567805   -0.394555   -1.649437
      6          6           0        0.793019   -0.443098   -0.114509
      7          8           0        0.598359    0.954868    0.243732
      8          6           0        2.320513   -0.221959   -0.017374
      9          8           0        2.920464    0.018752    1.228496
     10          1           0        4.013800    1.638518    1.883961
     11          1           0        2.266971    1.719477    2.224826
     12          1           0        2.270998    3.141577    0.297651
     13          1           0        3.655932    2.305634   -0.444158
     14          1           0        0.743513    1.731005   -2.322459
     15          1           0        2.202027    0.771074   -2.656628
     16          1           0       -0.493097   -0.297297   -1.885837
     17          1           0        0.963626   -1.269771   -2.172828
     18          1           0        0.224802   -1.151807    0.487547
     19          1           0        2.965543   -0.855986   -0.636790
 ---------------------------------------------------------------------
                    Distance matrix (angstroms):
                    1          2          3          4          5
     1  C    0.000000
     2  C    1.551084   0.000000
     3  C    2.332476   1.500794   0.000000
     4  C    3.838840   2.792200   1.527638   0.000000
     5  C    4.374450   3.807526   2.308600   1.577088   0.000000
     6  C    3.318365   3.267515   1.960378   2.364991   1.552122
     7  O    2.758310   2.464183   1.477759   2.332127   2.325074
     8  C    2.338553   2.431588   1.543819   2.438944   2.401126
     9  O    1.440297   2.414645   2.346530   3.649949   3.740097
    10  H    1.094742   2.221334   3.270680   4.709896   5.337900
    11  H    1.094907   2.182568   2.831729   4.345479   4.729293
    12  H    2.207339   1.092515   2.185372   3.284082   4.381352
    13  H    2.207228   1.095330   2.142529   3.061889   4.275540
    14  H    4.440489   3.202250   2.190371   1.091604   2.236479
    15  H    4.268112   3.173886   2.201296   1.093220   2.245842
    16  H    5.162135   4.543988   3.076974   2.235704   1.091264
    17  H    4.986942   4.509299   3.068622   2.242849   1.093899
    18  H    3.932742   4.179675   2.997887   3.405576   2.292986
    19  H    3.118741   3.130427   2.307693   2.723737   2.643391
                    6          7          8          9         10
     6  C    0.000000
     7  O    1.456207   0.000000
     8  C    1.546472   2.102121   0.000000
     9  O    2.557926   2.690399   1.403593   0.000000
    10  H    4.324400   3.850061   3.153358   2.061228   0.000000
    11  H    3.510235   2.700671   2.966395   2.076582   1.781616
    12  H    3.899256   2.753603   3.378619   3.322697   2.795162
    13  H    3.982520   3.412700   2.890366   2.927203   2.448112
    14  H    3.099068   2.684920   3.407993   4.503355   5.328912
    15  H    3.149903   3.319280   2.822378   4.021981   4.965071
    16  H    2.193845   2.700788   3.378348   4.631561   6.186346
    17  H    2.224674   3.304875   2.754095   4.130195   5.849722
    18  H    1.089775   2.153386   2.347673   3.030810   4.908401
    19  H    2.272248   3.107744   1.096235   2.060702   3.698051
                   11         12         13         14         15
    11  H    0.000000
    12  H    2.395076   0.000000
    13  H    3.065334   1.779641   0.000000
    14  H    4.795712   3.344832   3.512890   0.000000
    15  H    4.973156   3.788378   3.060023   1.777751   0.000000
    16  H    5.346298   4.922773   5.105696   2.415337   2.999871
    17  H    5.474822   5.222306   4.797951   3.012556   2.435723
    18  H    3.928469   4.759846   4.959297   4.059039   4.182431
    19  H    3.912781   4.163662   3.241849   3.804132   2.703706
                   16         17         18         19
    16  H    0.000000
    17  H    1.774855   0.000000
    18  H    2.622693   2.763579   0.000000
    19  H    3.719468   2.557010   2.977130   0.000000
 Stoichiometry    C7H10O2
 Framework group  C1[X(C7H10O2)]
 Deg. of freedom    51
 Full point group                 C1      NOp   1
 Largest Abelian subgroup         C1      NOp   1
 Largest concise Abelian subgroup C1      NOp   1
                         Standard orientation:                         
 ---------------------------------------------------------------------
 Center     Atomic      Atomic             Coordinates (Angstroms)
 Number     Number       Type             X           Y           Z
 ---------------------------------------------------------------------
      1          6           0        2.165021   -0.019105    0.145193
      2          6           0        1.302328    1.263412    0.015679
      3          6           0       -0.065537    0.646222   -0.004467
      4          6           0       -1.453045    1.134056   -0.417404
      5          6           0       -2.193044   -0.235581   -0.165007
      6          6           0       -0.982611   -1.044918    0.372498
      7          8           0       -0.359648   -0.068457    1.255098
      8          6           0        0.098109   -0.728584   -0.687479
      9          8           0        1.433563   -1.099173   -0.465445
     10          1           0        3.132971    0.062498   -0.359657
     11          1           0        2.334370   -0.250293    1.201930
     12          1           0        1.465018    1.953070    0.847239
     13          1           0        1.494155    1.791130   -0.924780
     14          1           0       -1.821642    1.934831    0.226408
     15          1           0       -1.501383    1.465415   -1.458074
     16          1           0       -2.976039   -0.155241    0.590850
     17          1           0       -2.627762   -0.659921   -1.074716
     18          1           0       -1.150188   -2.023881    0.821006
     19          1           0       -0.168139   -0.869571   -1.741503
 ---------------------------------------------------------------------
 Rotational constants (GHZ):      3.4478156      1.6941953      1.4581513
 Standard basis: 6-31G(2df,p) (6D, 7F)
 There are   329 symmetry adapted cartesian basis functions of A   symmetry.
 There are   302 symmetry adapted basis functions of A   symmetry.
   302 basis functions,   466 primitive gaussians,   329 cartesian basis functions
    34 alpha electrons       34 beta electrons
       nuclear repulsion energy       494.9020699904 Hartrees.
 NAtoms=   19 NActive=   19 NUniq=   19 SFac= 1.00D+00 NAtFMM=   60 NAOKFM=F Big=F
 Integral buffers will be    131072 words long.
 Raffenetti 2 integral format.
 Two-electron integral symmetry is turned on.
 One-electron integrals computed using PRISM.
 NBasis=   302 RedAO= T EigKep=  4.19D-04  NBF=   302
 NBsUse=   302 1.00D-06 EigRej= -1.00D+00 NBFU=   302
 ExpMin= 1.61D-01 ExpMax= 5.48D+03 ExpMxC= 8.25D+02 IAcc=1 IRadAn=         1 AccDes= 0.00D+00
 Harris functional with IExCor=  402 and IRadAn=       1 diagonalized for initial guess.
 HarFok:  IExCor=  402 AccDes= 0.00D+00 IRadAn=         1 IDoV= 1 UseB2=F ITyADJ=14
 ICtDFT=  3500011 ScaDFX=  1.000000  1.000000  1.000000  1.000000
 FoFCou: FMM=F IPFlag=           0 FMFlag=      100000 FMFlg1=           0
         NFxFlg=           0 DoJE=T BraDBF=F KetDBF=T FulRan=T
         wScrn=  0.000000 ICntrl=     500 IOpCl=  0 I1Cent=   200000004 NGrid=           0
         NMat0=    1 NMatS0=      1 NMatT0=    0 NMatD0=    1 NMtDS0=    0 NMtDT0=    0
 Petite list used in FoFCou.
 Requested convergence on RMS density matrix=1.00D-08 within 128 cycles.
 Requested convergence on MAX density matrix=1.00D-06.
 Requested convergence on             energy=1.00D-06.
 No special actions if energy rises.
 Integral accuracy reduced to 1.0D-05 until final iterations.
 Initial convergence to 1.0D-05 achieved.  Increase integral accuracy.
 SCF Done:  E(RB3LYP) =  -423.167257161     A.U. after   13 cycles
            NFock= 13  Conv=0.82D-08     -V/T= 2.0074

 **********************************************************************

            Population analysis using the SCF density.

 **********************************************************************

 Orbital symmetries:
       Occupied  (A) (A) (A) (A) (A) (A) (A) (A) (A) (A) (A) (A)
                 (A) (A) (A) (A) (A) (A) (A) (A) (A) (A) (A) (A)
                 (A) (A) (A) (A) (A) (A) (A) (A) (A) (A)
       Virtual   (A) (A) (A) (A) (A) (A) (A) (A) (A) (A) (A) (A)
                 (A) (A) (A) (A) (A) (A) (A) (A) (A) (A) (A) (A)
                 (A) (A) (A) (A) (A) (A) (A) (A) (A) (A) (A) (A)
                 (A) (A) (A) (A) (A) (A) (A) (A) (A) (A) (A) (A)
                 (A) (A) (A) (A) (A) (A) (A) (A) (A) (A) (A) (A)
                 (A) (A) (A) (A) (A) (A) (A) (A) (A) (A) (A) (A)
                 (A) (A) (A) (A) (A) (A) (A) (A) (A) (A) (A) (A)
                 (A) (A) (A) (A) (A) (A) (A) (A) (A) (A) (A) (A)
                 (A) (A) (A) (A) (A) (A) (A) (A) (A) (A) (A) (A)
                 (A) (A) (A) (A) (A) (A) (A) (A) (A) (A) (A) (A)
                 (A) (A) (A) (A) (A) (A) (A) (A) (A) (A) (A) (A)
                 (A) (A) (A) (A) (A) (A) (A) (A) (A) (A) (A) (A)
                 (A) (A) (A) (A) (A) (A) (A) (A) (A) (A) (A) (A)
                 (A) (A) (A) (A) (A) (A) (A) (A) (A) (A) (A) (A)
                 (A) (A) (A) (A) (A) (A) (A) (A) (A) (A) (A) (A)
                 (A) (A) (A) (A) (A) (A) (A) (A) (A) (A) (A) (A)
                 (A) (A) (A) (A) (A) (A) (A) (A) (A) (A) (A) (A)
                 (A) (A) (A) (A) (A) (A) (A) (A) (A) (A) (A) (A)
                 (A) (A) (A) (A) (A) (A) (A) (A) (A) (A) (A) (A)
                 (A) (A) (A) (A) (A) (A) (A) (A) (A) (A) (A) (A)
                 (A) (A) (A) (A) (A) (A) (A) (A) (A) (A) (A) (A)
                 (A) (A) (A) (A) (A) (A) (A) (A) (A) (A) (A) (A)
                 (A) (A) (A) (A)
 The electronic state is 1-A.
 Alpha  occ. eigenvalues --  -19.13675 -19.12965 -10.23753 -10.23251 -10.22689
 Alpha  occ. eigenvalues --  -10.22663 -10.19183 -10.19055 -10.18799  -1.06374
 Alpha  occ. eigenvalues --   -1.01161  -0.79562  -0.77914  -0.71029  -0.68715
 Alpha  occ. eigenvalues --   -0.61167  -0.57112  -0.53991  -0.50420  -0.48704
 Alpha  occ. eigenvalues --   -0.47733  -0.46246  -0.42397  -0.41443  -0.40791
 Alpha  occ. eigenvalues --   -0.38002  -0.35510  -0.35038  -0.34733  -0.32856
 Alpha  occ. eigenvalues --   -0.31866  -0.29198  -0.25618  -0.23944
 Alpha virt. eigenvalues --    0.08571   0.09923   0.10654   0.11216   0.12649
 Alpha virt. eigenvalues --    0.13419   0.14443   0.15847   0.16172   0.17144
 Alpha virt. eigenvalues --    0.17868   0.19112   0.19332   0.21115   0.21485
 Alpha virt. eigenvalues --    0.22355   0.24247   0.24834   0.28962   0.29117
 Alpha virt. eigenvalues --    0.33783   0.42950   0.44234   0.45452   0.46857
 Alpha virt. eigenvalues --    0.47938   0.48250   0.48947   0.51297   0.52599
 Alpha virt. eigenvalues --    0.53244   0.54359   0.55501   0.58260   0.59130
 Alpha virt. eigenvalues --    0.59647   0.63581   0.66253   0.67670   0.68550
 Alpha virt. eigenvalues --    0.69644   0.73146   0.73743   0.74371   0.75940
 Alpha virt. eigenvalues --    0.76541   0.77314   0.78072   0.79383   0.80659
 Alpha virt. eigenvalues --    0.82399   0.83456   0.85145   0.88695   0.89220
 Alpha virt. eigenvalues --    0.89950   0.94686   0.97183   0.99700   1.01082
 Alpha virt. eigenvalues --    1.03598   1.07626   1.08670   1.15443   1.16322
 Alpha virt. eigenvalues --    1.17771   1.18321   1.22004   1.23047   1.25727
 Alpha virt. eigenvalues --    1.27763   1.31494   1.32460   1.34681   1.36811
 Alpha virt. eigenvalues --    1.37455   1.39990   1.42368   1.44518   1.45834
 Alpha virt. eigenvalues --    1.47532   1.48185   1.49086   1.50910   1.52002
 Alpha virt. eigenvalues --    1.52991   1.54050   1.55827   1.57901   1.58818
 Alpha virt. eigenvalues --    1.61445   1.63617   1.64262   1.67162   1.69981
 Alpha virt. eigenvalues --    1.72377   1.73425   1.77014   1.78388   1.79803
 Alpha virt. eigenvalues --    1.81979   1.86518   1.90848   1.93660   1.95777
 Alpha virt. eigenvalues --    2.00355   2.01373   2.07467   2.11925   2.12986
 Alpha virt. eigenvalues --    2.16062   2.20031   2.22078   2.28890   2.31724
 Alpha virt. eigenvalues --    2.32405   2.35981   2.36793   2.41518   2.44677
 Alpha virt. eigenvalues --    2.45756   2.48613   2.49928   2.52968   2.60337
 Alpha virt. eigenvalues --    2.61118   2.63510   2.68648   2.71727   2.76789
 Alpha virt. eigenvalues --    2.77750   2.80072   2.80995   2.83975   2.84587
 Alpha virt. eigenvalues --    2.87178   2.89288   2.90642   2.94267   2.95223
 Alpha virt. eigenvalues --    2.96307   2.99586   3.00079   3.03663   3.07146
 Alpha virt. eigenvalues --    3.09126   3.10887   3.11784   3.13629   3.16889
 Alpha virt. eigenvalues --    3.19978   3.22186   3.23025   3.24066   3.26517
 Alpha virt. eigenvalues --    3.28921   3.33415   3.34426   3.36914   3.37551
 Alpha virt. eigenvalues --    3.40732   3.41633   3.44451   3.46726   3.50308
 Alpha virt. eigenvalues --    3.52250   3.55724   3.61091   3.63230   3.65723
 Alpha virt. eigenvalues --    3.67346   3.69766   3.73238   3.76978   3.78441
 Alpha virt. eigenvalues --    3.86081   3.88564   3.89626   3.96046   3.97981
 Alpha virt. eigenvalues --    4.04545   4.10471   4.15039   4.17696   4.22193
 Alpha virt. eigenvalues --    4.24342   4.25256   4.28599   4.31003   4.36085
 Alpha virt. eigenvalues --    4.37632   4.40513   4.41701   4.43737   4.44571
 Alpha virt. eigenvalues --    4.45970   4.47434   4.49937   4.51617   4.53562
 Alpha virt. eigenvalues --    4.55521   4.56034   4.57662   4.61669   4.62460
 Alpha virt. eigenvalues --    4.62999   4.65194   4.66448   4.67122   4.71871
 Alpha virt. eigenvalues --    4.72332   4.74308   4.75070   4.76002   4.77197
 Alpha virt. eigenvalues --    4.79923   4.81377   4.83271   4.85845   4.86378
 Alpha virt. eigenvalues --    4.90002   4.91871   4.94591   4.95726   4.98125
 Alpha virt. eigenvalues --    5.01007   5.05584   5.07252   5.08905   5.16924
 Alpha virt. eigenvalues --    5.20276   5.22237   5.24430   5.29742   5.31965
 Alpha virt. eigenvalues --    5.32900   5.43513   5.48302   5.51280   5.55535
 Alpha virt. eigenvalues --    5.58841   5.64006   5.66818   5.73068   5.81459
 Alpha virt. eigenvalues --    5.84379   5.90213   5.94165   5.99203   6.02172
 Alpha virt. eigenvalues --    6.03404   6.11756   6.16631   6.20952   6.24034
 Alpha virt. eigenvalues --    6.63629   7.14393   7.28810   7.44229  10.92899
 Alpha virt. eigenvalues --   11.42871  11.73105  11.82750  12.20969  12.49613
 Alpha virt. eigenvalues --   12.95799  13.58762  13.82526
          Condensed to atoms (all electrons):
               1          2          3          4          5          6
     1  C    4.803325   0.339199  -0.042406   0.007261   0.000360   0.006840
     2  C    0.339199   5.220661   0.387836  -0.080482   0.006909   0.006989
     3  C   -0.042406   0.387836   4.397897   0.380870  -0.045616  -0.056469
     4  C    0.007261  -0.080482   0.380870   5.136122   0.347975  -0.032931
     5  C    0.000360   0.006909  -0.045616   0.347975   5.040810   0.322882
     6  C    0.006840   0.006989  -0.056469  -0.032931   0.322882   4.910348
     7  O    0.012610  -0.039549   0.284704  -0.048011  -0.040518   0.313797
     8  C   -0.137630  -0.055938   0.362134  -0.054923  -0.027284   0.265629
     9  O    0.389056  -0.043933  -0.035663   0.001638   0.001247  -0.023441
    10  H    0.360540  -0.024892   0.002311  -0.000123   0.000033  -0.000521
    11  H    0.366532  -0.030786  -0.006061   0.000082  -0.000062   0.001724
    12  H   -0.025004   0.345662  -0.004017   0.000349  -0.000240  -0.000071
    13  H   -0.022428   0.343940  -0.015016   0.000087  -0.000091   0.000111
    14  H   -0.000209  -0.001188  -0.007977   0.352675  -0.024424  -0.000380
    15  H   -0.000176   0.002763  -0.012711   0.346756  -0.025319   0.001065
    16  H    0.000010  -0.000080   0.000324  -0.021169   0.362797  -0.015025
    17  H   -0.000026  -0.000094   0.000195  -0.024767   0.351726  -0.021671
    18  H   -0.000441  -0.000804   0.007599   0.006263  -0.054589   0.368076
    19  H    0.007132  -0.001236  -0.030660  -0.000493   0.006111  -0.067353
               7          8          9         10         11         12
     1  C    0.012610  -0.137630   0.389056   0.360540   0.366532  -0.025004
     2  C   -0.039549  -0.055938  -0.043933  -0.024892  -0.030786   0.345662
     3  C    0.284704   0.362134  -0.035663   0.002311  -0.006061  -0.004017
     4  C   -0.048011  -0.054923   0.001638  -0.000123   0.000082   0.000349
     5  C   -0.040518  -0.027284   0.001247   0.000033  -0.000062  -0.000240
     6  C    0.313797   0.265629  -0.023441  -0.000521   0.001724  -0.000071
     7  O    7.946300  -0.073114  -0.004489   0.000519   0.005649  -0.002395
     8  C   -0.073114   4.830461   0.424192   0.003969   0.002536   0.005929
     9  O   -0.004489   0.424192   7.664377  -0.025488  -0.028226   0.001900
    10  H    0.000519   0.003969  -0.025488   0.639659  -0.053789   0.003363
    11  H    0.005649   0.002536  -0.028226  -0.053789   0.626095  -0.004584
    12  H   -0.002395   0.005929   0.001900   0.003363  -0.004584   0.596904
    13  H    0.002588   0.000662   0.000755  -0.007603   0.005110  -0.037829
    14  H   -0.000792   0.005199  -0.000047   0.000002  -0.000001   0.000846
    15  H    0.003426  -0.001312   0.000047  -0.000004  -0.000005  -0.000076
    16  H   -0.000310   0.001500  -0.000026   0.000000   0.000000   0.000002
    17  H    0.003113   0.000181   0.000044   0.000000  -0.000002   0.000002
    18  H   -0.023600  -0.031847  -0.000792  -0.000005   0.000025   0.000026
    19  H    0.007480   0.347039  -0.030559   0.000314  -0.000558  -0.000162
              13         14         15         16         17         18
     1  C   -0.022428  -0.000209  -0.000176   0.000010  -0.000026  -0.000441
     2  C    0.343940  -0.001188   0.002763  -0.000080  -0.000094  -0.000804
     3  C   -0.015016  -0.007977  -0.012711   0.000324   0.000195   0.007599
     4  C    0.000087   0.352675   0.346756  -0.021169  -0.024767   0.006263
     5  C   -0.000091  -0.024424  -0.025319   0.362797   0.351726  -0.054589
     6  C    0.000111  -0.000380   0.001065  -0.015025  -0.021671   0.368076
     7  O    0.002588  -0.000792   0.003426  -0.000310   0.003113  -0.023600
     8  C    0.000662   0.005199  -0.001312   0.001500   0.000181  -0.031847
     9  O    0.000755  -0.000047   0.000047  -0.000026   0.000044  -0.000792
    10  H   -0.007603   0.000002  -0.000004   0.000000   0.000000  -0.000005
    11  H    0.005110  -0.000001  -0.000005   0.000000  -0.000002   0.000025
    12  H   -0.037829   0.000846  -0.000076   0.000002   0.000002   0.000026
    13  H    0.617401  -0.000128   0.001031   0.000000  -0.000017   0.000012
    14  H   -0.000128   0.609554  -0.041256  -0.007882   0.003806  -0.000017
    15  H    0.001031  -0.041256   0.624145   0.003554  -0.006146  -0.000096
    16  H    0.000000  -0.007882   0.003554   0.603254  -0.039487  -0.000474
    17  H   -0.000017   0.003806  -0.006146  -0.039487   0.626847   0.002603
    18  H    0.000012  -0.000017  -0.000096  -0.000474   0.002603   0.643730
    19  H    0.000039  -0.000144   0.000942  -0.000388   0.001406   0.001532
              19
     1  C    0.007132
     2  C   -0.001236
     3  C   -0.030660
     4  C   -0.000493
     5  C    0.006111
     6  C   -0.067353
     7  O    0.007480
     8  C    0.347039
     9  O   -0.030559
    10  H    0.000314
    11  H   -0.000558
    12  H   -0.000162
    13  H    0.000039
    14  H   -0.000144
    15  H    0.000942
    16  H   -0.000388
    17  H    0.001406
    18  H    0.001532
    19  H    0.690923
 Mulliken charges:
               1
     1  C   -0.064545
     2  C   -0.374978
     3  C    0.432724
     4  C   -0.317178
     5  C   -0.222706
     6  C    0.020402
     7  O   -0.347410
     8  C    0.132617
     9  O   -0.290590
    10  H    0.101715
    11  H    0.116321
    12  H    0.119396
    13  H    0.111375
    14  H    0.112363
    15  H    0.103371
    16  H    0.113400
    17  H    0.102286
    18  H    0.082801
    19  H    0.068636
 Sum of Mulliken charges =   0.00000
 Mulliken charges with hydrogens summed into heavy atoms:
               1
     1  C    0.153491
     2  C   -0.144207
     3  C    0.432724
     4  C   -0.101444
     5  C   -0.007020
     6  C    0.103203
     7  O   -0.347410
     8  C    0.201253
     9  O   -0.290590
 Electronic spatial extent (au):  <R**2>=            950.5102
 Charge=              0.0000 electrons
 Dipole moment (field-independent basis, Debye):
    X=             -0.6772    Y=              1.2929    Z=             -1.1317  Tot=              1.8469
 Quadrupole moment (field-independent basis, Debye-Ang):
   XX=            -50.6984   YY=            -52.7727   ZZ=            -54.6612
   XY=              3.8386   XZ=              1.4696   YZ=             -0.9105
 Traceless Quadrupole moment (field-independent basis, Debye-Ang):
   XX=              2.0124   YY=             -0.0620   ZZ=             -1.9505
   XY=              3.8386   XZ=              1.4696   YZ=             -0.9105
 Octapole moment (field-independent basis, Debye-Ang**2):
  XXX=              8.1920  YYY=             -2.6224  ZZZ=             -2.4826  XYY=             -3.3616
  XXY=              2.1042  XXZ=              4.5073  XZZ=              1.8022  YZZ=             -1.1025
  YYZ=              4.3176  XYZ=             -1.1420
 Hexadecapole moment (field-independent basis, Debye-Ang**3):
 XXXX=           -723.4095 YYYY=           -318.6943 ZZZZ=           -182.1161 XXXY=              0.3607
 XXXZ=             -8.2554 YYYX=              2.8553 YYYZ=             -0.1093 ZZZX=              0.3355
 ZZZY=              0.6517 XXYY=           -181.5388 XXZZ=           -149.7678 YYZZ=            -78.9492
 XXYZ=             -1.5433 YYXZ=             -1.1750 ZZXY=              1.5980
 N-N= 4.949020699904D+02 E-N=-1.976767118606D+03  KE= 4.200742240096D+02
 Calling FoFJK, ICntrl=      2127 FMM=F ISym2X=0 I1Cent= 0 IOpClX= 0 NMat=1 NMatS=1 NMatT=0.
 ***** Axes restored to original set *****
 -------------------------------------------------------------------
 Center     Atomic                   Forces (Hartrees/Bohr)
 Number     Number              X              Y              Z
 -------------------------------------------------------------------
      1        6          -0.000029645   -0.000102425   -0.000024729
      2        6           0.000109945    0.000095947   -0.000059613
      3        6           0.000092739   -0.000086372   -0.000038506
      4        6          -0.000056753    0.000062933   -0.000026563
      5        6           0.000020742   -0.000068647    0.000002382
      6        6           0.000008405    0.000090264    0.000028224
      7        8          -0.000021910   -0.000045802    0.000042093
      8        6          -0.000047063    0.000079409    0.000105054
      9        8          -0.000002969    0.000018753   -0.000019439
     10        1           0.000009518   -0.000004363    0.000014028
     11        1           0.000002254   -0.000016073    0.000007805
     12        1          -0.000057609   -0.000015970    0.000012614
     13        1          -0.000030296    0.000009731    0.000023524
     14        1           0.000000100    0.000004215   -0.000004343
     15        1           0.000002163    0.000013925    0.000012513
     16        1           0.000006292   -0.000005274    0.000009864
     17        1           0.000002761   -0.000003628   -0.000022481
     18        1          -0.000009667   -0.000045235   -0.000027260
     19        1           0.000000993    0.000018611   -0.000035167
 -------------------------------------------------------------------
 Cartesian Forces:  Max     0.000109945 RMS     0.000044435

 GradGradGradGradGradGradGradGradGradGradGradGradGradGradGradGradGradGrad
 Berny optimization.
 FormGI is forming the generalized inverse of G from B-inverse, IUseBI=4.
 Internal  Forces:  Max     0.000066068 RMS     0.000015858
 Search for a local minimum.
 Step number   1 out of a maximum of  114
 All quantities printed in internal units (Hartrees-Bohrs-Radians)
 Mixed Optimization -- En-DIIS/RFO-DIIS
 Second derivative matrix not updated -- first step.
 ITU=  0
     Eigenvalues ---    0.00591   0.00664   0.01804   0.02117   0.02305
     Eigenvalues ---    0.03102   0.03497   0.03881   0.03965   0.04066
     Eigenvalues ---    0.05336   0.05547   0.05717   0.05777   0.05874
     Eigenvalues ---    0.05951   0.06005   0.06123   0.06391   0.06692
     Eigenvalues ---    0.07072   0.07931   0.08660   0.08885   0.10464
     Eigenvalues ---    0.11287   0.11703   0.14139   0.14726   0.15592
     Eigenvalues ---    0.21618   0.22591   0.24636   0.25656   0.26473
     Eigenvalues ---    0.27574   0.28800   0.30580   0.32323   0.34102
     Eigenvalues ---    0.34204   0.34252   0.34270   0.34366   0.34443
     Eigenvalues ---    0.34524   0.34628   0.34667   0.34839   0.37247
     Eigenvalues ---    0.42969
 RFO step:  Lambda=-3.25890091D-07 EMin= 5.91325732D-03
 Linear search not attempted -- first point.
 Iteration  1 RMS(Cart)=  0.00025554 RMS(Int)=  0.00000006
 Iteration  2 RMS(Cart)=  0.00000007 RMS(Int)=  0.00000003
 Variable       Old X    -DE/DX   Delta X   Delta X   Delta X     New X
                                 (Linear)    (Quad)   (Total)
    R1        2.93112   0.00004   0.00000   0.00020   0.00020   2.93133
    R2        2.72177  -0.00007   0.00000  -0.00016  -0.00016   2.72161
    R3        2.06876   0.00001   0.00000   0.00004   0.00004   2.06880
    R4        2.06907   0.00000   0.00000   0.00000   0.00000   2.06907
    R5        2.83609   0.00003   0.00000   0.00011   0.00011   2.83620
    R6        2.06455   0.00001   0.00000   0.00002   0.00002   2.06458
    R7        2.06987  -0.00003   0.00000  -0.00009  -0.00009   2.06979
    R8        2.88682   0.00002   0.00000   0.00009   0.00009   2.88691
    R9        2.79256   0.00004   0.00000   0.00016   0.00016   2.79272
   R10        2.91739  -0.00004   0.00000  -0.00014  -0.00014   2.91725
   R11        2.98027   0.00003   0.00000   0.00012   0.00012   2.98039
   R12        2.06283   0.00000   0.00000   0.00000   0.00000   2.06283
   R13        2.06589   0.00000   0.00000  -0.00001  -0.00001   2.06588
   R14        2.93309   0.00001   0.00000   0.00001   0.00001   2.93310
   R15        2.06219  -0.00001   0.00000  -0.00002  -0.00002   2.06217
   R16        2.06717   0.00001   0.00000   0.00004   0.00004   2.06721
   R17        2.75183  -0.00002   0.00000  -0.00008  -0.00008   2.75175
   R18        2.92241  -0.00001   0.00000  -0.00011  -0.00011   2.92230
   R19        2.05938   0.00002   0.00000   0.00006   0.00006   2.05944
   R20        2.65241  -0.00005   0.00000  -0.00015  -0.00015   2.65226
   R21        2.07158   0.00000   0.00000   0.00001   0.00001   2.07160
    A1        1.87778   0.00003   0.00000   0.00021   0.00021   1.87800
    A2        1.97320   0.00000   0.00000   0.00006   0.00006   1.97326
    A3        1.91899   0.00001   0.00000  -0.00001  -0.00001   1.91898
    A4        1.88537  -0.00001   0.00000  -0.00006  -0.00006   1.88532
    A5        1.90646  -0.00002   0.00000  -0.00013  -0.00013   1.90633
    A6        1.90082   0.00000   0.00000  -0.00008  -0.00008   1.90074
    A7        1.73961  -0.00005   0.00000  -0.00021  -0.00021   1.73939
    A8        1.95582   0.00002   0.00000  -0.00003  -0.00003   1.95579
    A9        1.95267   0.00001   0.00000   0.00017   0.00017   1.95284
   A10        1.98837  -0.00001   0.00000  -0.00044  -0.00044   1.98793
   A11        1.92434   0.00002   0.00000   0.00026   0.00026   1.92460
   A12        1.90002   0.00000   0.00000   0.00022   0.00022   1.90025
   A13        2.34637  -0.00001   0.00000   0.00001   0.00001   2.34638
   A14        1.94856   0.00000   0.00000  -0.00012  -0.00012   1.94844
   A15        1.84996   0.00000   0.00000   0.00012   0.00012   1.85007
   A16        1.77631   0.00000   0.00000  -0.00013  -0.00013   1.77618
   A17        1.83492   0.00001   0.00000   0.00022   0.00022   1.83514
   A18        1.53830  -0.00002   0.00000  -0.00013  -0.00013   1.53817
   A19        1.67658  -0.00001   0.00000  -0.00004  -0.00004   1.67653
   A20        1.96224   0.00001   0.00000   0.00017   0.00017   1.96241
   A21        1.97607  -0.00001   0.00000  -0.00022  -0.00022   1.97585
   A22        1.96520   0.00001   0.00000   0.00015   0.00015   1.96535
   A23        1.97668   0.00000   0.00000  -0.00004  -0.00004   1.97664
   A24        1.90092   0.00000   0.00000  -0.00001  -0.00001   1.90090
   A25        1.71363   0.00000   0.00000  -0.00001  -0.00001   1.71362
   A26        1.96447   0.00000   0.00000  -0.00002  -0.00002   1.96445
   A27        1.97172   0.00000   0.00000   0.00005   0.00005   1.97177
   A28        1.93701  -0.00001   0.00000  -0.00015  -0.00015   1.93685
   A29        1.97756   0.00001   0.00000   0.00016   0.00016   1.97772
   A30        1.89593   0.00000   0.00000  -0.00003  -0.00003   1.89590
   A31        1.76589   0.00002   0.00000   0.00031   0.00031   1.76621
   A32        1.77314   0.00000   0.00000  -0.00019  -0.00019   1.77294
   A33        2.08406  -0.00002   0.00000  -0.00028  -0.00028   2.08378
   A34        1.55010   0.00000   0.00000  -0.00006  -0.00006   1.55004
   A35        2.00282   0.00000   0.00000   0.00027   0.00027   2.00308
   A36        2.18133   0.00001   0.00000   0.00008   0.00008   2.18141
   A37        1.46342  -0.00001   0.00000  -0.00001  -0.00001   1.46341
   A38        1.37438   0.00001   0.00000   0.00009   0.00009   1.37446
   A39        1.84003   0.00002   0.00000   0.00015   0.00015   1.84018
   A40        2.11083  -0.00003   0.00000  -0.00032  -0.00032   2.11052
   A41        2.09725   0.00000   0.00000   0.00010   0.00010   2.09735
   A42        2.05216  -0.00001   0.00000  -0.00009  -0.00009   2.05207
   A43        1.92754   0.00000   0.00000   0.00005   0.00005   1.92759
   A44        1.93079   0.00000   0.00000  -0.00011  -0.00011   1.93068
    D1        0.49317   0.00000   0.00000  -0.00016  -0.00016   0.49301
    D2        2.60259  -0.00003   0.00000  -0.00081  -0.00081   2.60178
    D3       -1.54095   0.00000   0.00000  -0.00041  -0.00041  -1.54136
    D4        2.57342   0.00001   0.00000  -0.00005  -0.00005   2.57337
    D5       -1.60035  -0.00002   0.00000  -0.00070  -0.00070  -1.60105
    D6        0.53930   0.00000   0.00000  -0.00030  -0.00030   0.53900
    D7       -1.58134   0.00001   0.00000  -0.00012  -0.00012  -1.58146
    D8        0.52808  -0.00002   0.00000  -0.00077  -0.00077   0.52731
    D9        2.66773   0.00000   0.00000  -0.00037  -0.00037   2.66736
   D10       -0.23721  -0.00002   0.00000  -0.00003  -0.00003  -0.23724
   D11       -2.37274  -0.00002   0.00000  -0.00019  -0.00019  -2.37293
   D12        1.84532   0.00000   0.00000   0.00001   0.00001   1.84532
   D13       -2.85000  -0.00001   0.00000  -0.00031  -0.00031  -2.85031
   D14        1.09177   0.00000   0.00000   0.00015   0.00015   1.09192
   D15       -0.55649   0.00001   0.00000   0.00029   0.00029  -0.55620
   D16        1.34752   0.00000   0.00000   0.00005   0.00005   1.34757
   D17       -0.99390   0.00001   0.00000   0.00051   0.00051  -0.99338
   D18       -2.64216   0.00002   0.00000   0.00065   0.00065  -2.64151
   D19       -0.79461  -0.00001   0.00000  -0.00013  -0.00013  -0.79473
   D20       -3.13603  -0.00001   0.00000   0.00034   0.00034  -3.13569
   D21        1.49890   0.00001   0.00000   0.00048   0.00048   1.49937
   D22        3.08122   0.00000   0.00000  -0.00012  -0.00012   3.08110
   D23       -1.15108   0.00001   0.00000   0.00008   0.00008  -1.15100
   D24        1.01249   0.00001   0.00000   0.00003   0.00003   1.01252
   D25       -0.80981  -0.00001   0.00000  -0.00056  -0.00056  -0.81037
   D26        1.24108   0.00001   0.00000  -0.00036  -0.00036   1.24072
   D27       -2.87853   0.00000   0.00000  -0.00041  -0.00041  -2.87894
   D28        0.78299  -0.00002   0.00000  -0.00069  -0.00069   0.78230
   D29        2.83387  -0.00001   0.00000  -0.00049  -0.00049   2.83339
   D30       -1.28574  -0.00001   0.00000  -0.00054  -0.00054  -1.28628
   D31       -2.45260  -0.00001   0.00000  -0.00014  -0.00014  -2.45274
   D32        1.23972   0.00000   0.00000   0.00011   0.00011   1.23983
   D33       -0.59414  -0.00001   0.00000  -0.00008  -0.00008  -0.59422
   D34        2.51850   0.00000   0.00000  -0.00009  -0.00009   2.51841
   D35        0.45096   0.00000   0.00000  -0.00020  -0.00020   0.45076
   D36       -1.74818   0.00000   0.00000  -0.00016  -0.00016  -1.74834
   D37       -1.21118   0.00001   0.00000   0.00024   0.00024  -1.21094
   D38        3.00447   0.00000   0.00000   0.00013   0.00013   3.00460
   D39        0.80533   0.00000   0.00000   0.00016   0.00016   0.80550
   D40        0.56375   0.00000   0.00000   0.00007   0.00007   0.56382
   D41       -1.50378   0.00000   0.00000  -0.00004  -0.00004  -1.50382
   D42        2.58027   0.00000   0.00000  -0.00001  -0.00001   2.58026
   D43        0.04055   0.00002   0.00000   0.00071   0.00071   0.04126
   D44        2.07975   0.00001   0.00000   0.00052   0.00052   2.08027
   D45       -2.04819   0.00001   0.00000   0.00051   0.00051  -2.04767
   D46       -2.00798   0.00001   0.00000   0.00050   0.00050  -2.00748
   D47        0.03122  -0.00001   0.00000   0.00031   0.00031   0.03153
   D48        2.18647  -0.00001   0.00000   0.00030   0.00030   2.18677
   D49        2.10879   0.00000   0.00000   0.00043   0.00043   2.10922
   D50       -2.13520  -0.00001   0.00000   0.00024   0.00024  -2.13496
   D51        0.02005  -0.00001   0.00000   0.00023   0.00023   0.02028
   D52        0.74519   0.00000   0.00000  -0.00063  -0.00063   0.74456
   D53       -0.84461  -0.00001   0.00000  -0.00059  -0.00059  -0.84520
   D54        2.96113   0.00000   0.00000  -0.00019  -0.00019   2.96094
   D55       -1.31513   0.00000   0.00000  -0.00054  -0.00054  -1.31567
   D56       -2.90493   0.00000   0.00000  -0.00050  -0.00050  -2.90544
   D57        0.90081   0.00001   0.00000  -0.00010  -0.00010   0.90071
   D58        2.82952   0.00000   0.00000  -0.00050  -0.00050   2.82902
   D59        1.23972   0.00000   0.00000  -0.00047  -0.00047   1.23925
   D60       -1.23772   0.00001   0.00000  -0.00007  -0.00007  -1.23779
   D61       -1.18020   0.00001   0.00000   0.00027   0.00027  -1.17993
   D62        0.59277   0.00000   0.00000   0.00007   0.00007   0.59284
   D63        2.83473   0.00002   0.00000   0.00022   0.00022   2.83495
   D64        1.19279   0.00000   0.00000   0.00018   0.00018   1.19297
   D65        2.96294   0.00003   0.00000   0.00040   0.00040   2.96334
   D66       -0.88725   0.00003   0.00000   0.00050   0.00050  -0.88675
   D67       -0.57294  -0.00002   0.00000  -0.00012  -0.00012  -0.57306
   D68        1.19722   0.00001   0.00000   0.00009   0.00009   1.19731
   D69       -2.65298   0.00000   0.00000   0.00020   0.00020  -2.65278
   D70       -2.66347  -0.00003   0.00000  -0.00045  -0.00045  -2.66392
   D71       -0.89332   0.00000   0.00000  -0.00023  -0.00023  -0.89355
   D72        1.53967  -0.00001   0.00000  -0.00013  -0.00013   1.53955
   D73       -0.12418   0.00001   0.00000   0.00014   0.00014  -0.12403
   D74       -1.62111  -0.00002   0.00000  -0.00007  -0.00007  -1.62118
   D75        2.18361  -0.00001   0.00000  -0.00012  -0.00012   2.18349
         Item               Value     Threshold  Converged?
 Maximum Force            0.000066     0.000450     YES
 RMS     Force            0.000016     0.000300     YES
 Maximum Displacement     0.001116     0.001800     YES
 RMS     Displacement     0.000256     0.001200     YES
 Predicted change in Energy=-1.629332D-07
 Optimization completed.
    -- Stationary point found.
                           ----------------------------
                           !   Optimized Parameters   !
                           ! (Angstroms and Degrees)  !
 --------------------------                            --------------------------
 ! Name  Definition              Value          Derivative Info.                !
 --------------------------------------------------------------------------------
 ! R1    R(1,2)                  1.5511         -DE/DX =    0.0                 !
 ! R2    R(1,9)                  1.4403         -DE/DX =   -0.0001              !
 ! R3    R(1,10)                 1.0947         -DE/DX =    0.0                 !
 ! R4    R(1,11)                 1.0949         -DE/DX =    0.0                 !
 ! R5    R(2,3)                  1.5008         -DE/DX =    0.0                 !
 ! R6    R(2,12)                 1.0925         -DE/DX =    0.0                 !
 ! R7    R(2,13)                 1.0953         -DE/DX =    0.0                 !
 ! R8    R(3,4)                  1.5276         -DE/DX =    0.0                 !
 ! R9    R(3,7)                  1.4778         -DE/DX =    0.0                 !
 ! R10   R(3,8)                  1.5438         -DE/DX =    0.0                 !
 ! R11   R(4,5)                  1.5771         -DE/DX =    0.0                 !
 ! R12   R(4,14)                 1.0916         -DE/DX =    0.0                 !
 ! R13   R(4,15)                 1.0932         -DE/DX =    0.0                 !
 ! R14   R(5,6)                  1.5521         -DE/DX =    0.0                 !
 ! R15   R(5,16)                 1.0913         -DE/DX =    0.0                 !
 ! R16   R(5,17)                 1.0939         -DE/DX =    0.0                 !
 ! R17   R(6,7)                  1.4562         -DE/DX =    0.0                 !
 ! R18   R(6,8)                  1.5465         -DE/DX =    0.0                 !
 ! R19   R(6,18)                 1.0898         -DE/DX =    0.0                 !
 ! R20   R(8,9)                  1.4036         -DE/DX =    0.0                 !
 ! R21   R(8,19)                 1.0962         -DE/DX =    0.0                 !
 ! A1    A(2,1,9)              107.5891         -DE/DX =    0.0                 !
 ! A2    A(2,1,10)             113.0559         -DE/DX =    0.0                 !
 ! A3    A(2,1,11)             109.9502         -DE/DX =    0.0                 !
 ! A4    A(9,1,10)             108.024          -DE/DX =    0.0                 !
 ! A5    A(9,1,11)             109.2322         -DE/DX =    0.0                 !
 ! A6    A(10,1,11)            108.9089         -DE/DX =    0.0                 !
 ! A7    A(1,2,3)               99.672          -DE/DX =    0.0                 !
 ! A8    A(1,2,12)             112.0601         -DE/DX =    0.0                 !
 ! A9    A(1,2,13)             111.8795         -DE/DX =    0.0                 !
 ! A10   A(3,2,12)             113.925          -DE/DX =    0.0                 !
 ! A11   A(3,2,13)             110.2567         -DE/DX =    0.0                 !
 ! A12   A(12,2,13)            108.8632         -DE/DX =    0.0                 !
 ! A13   A(2,3,4)              134.4371         -DE/DX =    0.0                 !
 ! A14   A(2,3,7)              111.6442         -DE/DX =    0.0                 !
 ! A15   A(2,3,8)              105.9946         -DE/DX =    0.0                 !
 ! A16   A(4,3,7)              101.7751         -DE/DX =    0.0                 !
 ! A17   A(4,3,8)              105.1333         -DE/DX =    0.0                 !
 ! A18   A(7,3,8)               88.1383         -DE/DX =    0.0                 !
 ! A19   A(3,4,5)               96.0608         -DE/DX =    0.0                 !
 ! A20   A(3,4,14)             112.4282         -DE/DX =    0.0                 !
 ! A21   A(3,4,15)             113.2204         -DE/DX =    0.0                 !
 ! A22   A(5,4,14)             112.5974         -DE/DX =    0.0                 !
 ! A23   A(5,4,15)             113.2556         -DE/DX =    0.0                 !
 ! A24   A(14,4,15)            108.9144         -DE/DX =    0.0                 !
 ! A25   A(4,5,6)               98.1837         -DE/DX =    0.0                 !
 ! A26   A(4,5,16)             112.5558         -DE/DX =    0.0                 !
 ! A27   A(4,5,17)             112.971          -DE/DX =    0.0                 !
 ! A28   A(6,5,16)             110.9824         -DE/DX =    0.0                 !
 ! A29   A(6,5,17)             113.3057         -DE/DX =    0.0                 !
 ! A30   A(16,5,17)            108.6287         -DE/DX =    0.0                 !
 ! A31   A(5,6,7)              101.1783         -DE/DX =    0.0                 !
 ! A32   A(5,6,8)              101.5933         -DE/DX =    0.0                 !
 ! A33   A(5,6,18)             119.4077         -DE/DX =    0.0                 !
 ! A34   A(7,6,8)               88.8143         -DE/DX =    0.0                 !
 ! A35   A(7,6,18)             114.7529         -DE/DX =    0.0                 !
 ! A36   A(8,6,18)             124.9809         -DE/DX =    0.0                 !
 ! A37   A(3,7,6)               83.848          -DE/DX =    0.0                 !
 ! A38   A(3,8,6)               78.746          -DE/DX =    0.0                 !
 ! A39   A(3,8,9)              105.4259         -DE/DX =    0.0                 !
 ! A40   A(3,8,19)             120.9418         -DE/DX =    0.0                 !
 ! A41   A(6,8,9)              120.1635         -DE/DX =    0.0                 !
 ! A42   A(6,8,19)             117.5801         -DE/DX =    0.0                 !
 ! A43   A(9,8,19)             110.44           -DE/DX =    0.0                 !
 ! A44   A(1,9,8)              110.6263         -DE/DX =    0.0                 !
 ! D1    D(9,1,2,3)             28.2568         -DE/DX =    0.0                 !
 ! D2    D(9,1,2,12)           149.1173         -DE/DX =    0.0                 !
 ! D3    D(9,1,2,13)           -88.2897         -DE/DX =    0.0                 !
 ! D4    D(10,1,2,3)           147.4461         -DE/DX =    0.0                 !
 ! D5    D(10,1,2,12)          -91.6933         -DE/DX =    0.0                 !
 ! D6    D(10,1,2,13)           30.8997         -DE/DX =    0.0                 !
 ! D7    D(11,1,2,3)           -90.604          -DE/DX =    0.0                 !
 ! D8    D(11,1,2,12)           30.2566         -DE/DX =    0.0                 !
 ! D9    D(11,1,2,13)          152.8496         -DE/DX =    0.0                 !
 ! D10   D(2,1,9,8)            -13.5911         -DE/DX =    0.0                 !
 ! D11   D(10,1,9,8)          -135.9478         -DE/DX =    0.0                 !
 ! D12   D(11,1,9,8)           105.7289         -DE/DX =    0.0                 !
 ! D13   D(1,2,3,4)           -163.2928         -DE/DX =    0.0                 !
 ! D14   D(1,2,3,7)             62.5537         -DE/DX =    0.0                 !
 ! D15   D(1,2,3,8)            -31.8847         -DE/DX =    0.0                 !
 ! D16   D(12,2,3,4)            77.2074         -DE/DX =    0.0                 !
 ! D17   D(12,2,3,7)           -56.9462         -DE/DX =    0.0                 !
 ! D18   D(12,2,3,8)          -151.3845         -DE/DX =    0.0                 !
 ! D19   D(13,2,3,4)           -45.5275         -DE/DX =    0.0                 !
 ! D20   D(13,2,3,7)          -179.6811         -DE/DX =    0.0                 !
 ! D21   D(13,2,3,8)            85.8805         -DE/DX =    0.0                 !
 ! D22   D(2,3,4,5)            176.5406         -DE/DX =    0.0                 !
 ! D23   D(2,3,4,14)           -65.9522         -DE/DX =    0.0                 !
 ! D24   D(2,3,4,15)            58.0116         -DE/DX =    0.0                 !
 ! D25   D(7,3,4,5)            -46.3987         -DE/DX =    0.0                 !
 ! D26   D(7,3,4,14)            71.1084         -DE/DX =    0.0                 !
 ! D27   D(7,3,4,15)          -164.9277         -DE/DX =    0.0                 !
 ! D28   D(8,3,4,5)             44.8618         -DE/DX =    0.0                 !
 ! D29   D(8,3,4,14)           162.3689         -DE/DX =    0.0                 !
 ! D30   D(8,3,4,15)           -73.6672         -DE/DX =    0.0                 !
 ! D31   D(2,3,7,6)           -140.5234         -DE/DX =    0.0                 !
 ! D32   D(4,3,7,6)             71.0307         -DE/DX =    0.0                 !
 ! D33   D(8,3,7,6)            -34.0418         -DE/DX =    0.0                 !
 ! D34   D(2,3,8,6)            144.2992         -DE/DX =    0.0                 !
 ! D35   D(2,3,8,9)             25.8382         -DE/DX =    0.0                 !
 ! D36   D(2,3,8,19)          -100.1631         -DE/DX =    0.0                 !
 ! D37   D(4,3,8,6)            -69.3954         -DE/DX =    0.0                 !
 ! D38   D(4,3,8,9)            172.1435         -DE/DX =    0.0                 !
 ! D39   D(4,3,8,19)            46.1423         -DE/DX =    0.0                 !
 ! D40   D(7,3,8,6)             32.3007         -DE/DX =    0.0                 !
 ! D41   D(7,3,8,9)            -86.1603         -DE/DX =    0.0                 !
 ! D42   D(7,3,8,19)           147.8384         -DE/DX =    0.0                 !
 ! D43   D(3,4,5,6)              2.3234         -DE/DX =    0.0                 !
 ! D44   D(3,4,5,16)           119.1609         -DE/DX =    0.0                 !
 ! D45   D(3,4,5,17)          -117.3524         -DE/DX =    0.0                 !
 ! D46   D(14,4,5,6)          -115.0487         -DE/DX =    0.0                 !
 ! D47   D(14,4,5,16)            1.7889         -DE/DX =    0.0                 !
 ! D48   D(14,4,5,17)          125.2755         -DE/DX =    0.0                 !
 ! D49   D(15,4,5,6)           120.8246         -DE/DX =    0.0                 !
 ! D50   D(15,4,5,16)         -122.3379         -DE/DX =    0.0                 !
 ! D51   D(15,4,5,17)            1.1488         -DE/DX =    0.0                 !
 ! D52   D(4,5,6,7)             42.6963         -DE/DX =    0.0                 !
 ! D53   D(4,5,6,8)            -48.3928         -DE/DX =    0.0                 !
 ! D54   D(4,5,6,18)           169.6604         -DE/DX =    0.0                 !
 ! D55   D(16,5,6,7)           -75.3513         -DE/DX =    0.0                 !
 ! D56   D(16,5,6,8)          -166.4404         -DE/DX =    0.0                 !
 ! D57   D(16,5,6,18)           51.6129         -DE/DX =    0.0                 !
 ! D58   D(17,5,6,7)           162.1197         -DE/DX =    0.0                 !
 ! D59   D(17,5,6,8)            71.0306         -DE/DX =    0.0                 !
 ! D60   D(17,5,6,18)          -70.9161         -DE/DX =    0.0                 !
 ! D61   D(5,6,7,3)            -67.6206         -DE/DX =    0.0                 !
 ! D62   D(8,6,7,3)             33.9634         -DE/DX =    0.0                 !
 ! D63   D(18,6,7,3)           162.4183         -DE/DX =    0.0                 !
 ! D64   D(5,6,8,3)             68.3418         -DE/DX =    0.0                 !
 ! D65   D(5,6,8,9)            169.7641         -DE/DX =    0.0                 !
 ! D66   D(5,6,8,19)           -50.8359         -DE/DX =    0.0                 !
 ! D67   D(7,6,8,3)            -32.8268         -DE/DX =    0.0                 !
 ! D68   D(7,6,8,9)             68.5955         -DE/DX =    0.0                 !
 ! D69   D(7,6,8,19)          -152.0045         -DE/DX =    0.0                 !
 ! D70   D(18,6,8,3)          -152.6056         -DE/DX =    0.0                 !
 ! D71   D(18,6,8,9)           -51.1833         -DE/DX =    0.0                 !
 ! D72   D(18,6,8,19)           88.2167         -DE/DX =    0.0                 !
 ! D73   D(3,8,9,1)             -7.1148         -DE/DX =    0.0                 !
 ! D74   D(6,8,9,1)            -92.8827         -DE/DX =    0.0                 !
 ! D75   D(19,8,9,1)           125.1114         -DE/DX =    0.0                 !
 --------------------------------------------------------------------------------
 GradGradGradGradGradGradGradGradGradGradGradGradGradGradGradGradGradGrad

                          Input orientation:                          
 ---------------------------------------------------------------------
 Center     Atomic      Atomic             Coordinates (Angstroms)
 Number     Number       Type             X           Y           Z
 ---------------------------------------------------------------------
      1          6           0        3.017076    1.433586    1.480225
      2          6           0        2.741005    2.167685    0.142038
      3          6           0        1.847414    1.159299   -0.519051
      4          6           0        1.378696    0.923421   -1.953744
      5          6           0        0.567805   -0.394555   -1.649437
      6          6           0        0.793019   -0.443098   -0.114509
      7          8           0        0.598359    0.954868    0.243732
      8          6           0        2.320513   -0.221959   -0.017374
      9          8           0        2.920464    0.018752    1.228496
     10          1           0        4.013800    1.638518    1.883961
     11          1           0        2.266971    1.719477    2.224826
     12          1           0        2.270998    3.141577    0.297651
     13          1           0        3.655932    2.305634   -0.444158
     14          1           0        0.743513    1.731005   -2.322459
     15          1           0        2.202027    0.771074   -2.656628
     16          1           0       -0.493097   -0.297297   -1.885837
     17          1           0        0.963626   -1.269771   -2.172828
     18          1           0        0.224802   -1.151807    0.487547
     19          1           0        2.965543   -0.855986   -0.636790
 ---------------------------------------------------------------------
                    Distance matrix (angstroms):
                    1          2          3          4          5
     1  C    0.000000
     2  C    1.551084   0.000000
     3  C    2.332476   1.500794   0.000000
     4  C    3.838840   2.792200   1.527638   0.000000
     5  C    4.374450   3.807526   2.308600   1.577088   0.000000
     6  C    3.318365   3.267515   1.960378   2.364991   1.552122
     7  O    2.758310   2.464183   1.477759   2.332127   2.325074
     8  C    2.338553   2.431588   1.543819   2.438944   2.401126
     9  O    1.440297   2.414645   2.346530   3.649949   3.740097
    10  H    1.094742   2.221334   3.270680   4.709896   5.337900
    11  H    1.094907   2.182568   2.831729   4.345479   4.729293
    12  H    2.207339   1.092515   2.185372   3.284082   4.381352
    13  H    2.207228   1.095330   2.142529   3.061889   4.275540
    14  H    4.440489   3.202250   2.190371   1.091604   2.236479
    15  H    4.268112   3.173886   2.201296   1.093220   2.245842
    16  H    5.162135   4.543988   3.076974   2.235704   1.091264
    17  H    4.986942   4.509299   3.068622   2.242849   1.093899
    18  H    3.932742   4.179675   2.997887   3.405576   2.292986
    19  H    3.118741   3.130427   2.307693   2.723737   2.643391
                    6          7          8          9         10
     6  C    0.000000
     7  O    1.456207   0.000000
     8  C    1.546472   2.102121   0.000000
     9  O    2.557926   2.690399   1.403593   0.000000
    10  H    4.324400   3.850061   3.153358   2.061228   0.000000
    11  H    3.510235   2.700671   2.966395   2.076582   1.781616
    12  H    3.899256   2.753603   3.378619   3.322697   2.795162
    13  H    3.982520   3.412700   2.890366   2.927203   2.448112
    14  H    3.099068   2.684920   3.407993   4.503355   5.328912
    15  H    3.149903   3.319280   2.822378   4.021981   4.965071
    16  H    2.193845   2.700788   3.378348   4.631561   6.186346
    17  H    2.224674   3.304875   2.754095   4.130195   5.849722
    18  H    1.089775   2.153386   2.347673   3.030810   4.908401
    19  H    2.272248   3.107744   1.096235   2.060702   3.698051
                   11         12         13         14         15
    11  H    0.000000
    12  H    2.395076   0.000000
    13  H    3.065334   1.779641   0.000000
    14  H    4.795712   3.344832   3.512890   0.000000
    15  H    4.973156   3.788378   3.060023   1.777751   0.000000
    16  H    5.346298   4.922773   5.105696   2.415337   2.999871
    17  H    5.474822   5.222306   4.797951   3.012556   2.435723
    18  H    3.928469   4.759846   4.959297   4.059039   4.182431
    19  H    3.912781   4.163662   3.241849   3.804132   2.703706
                   16         17         18         19
    16  H    0.000000
    17  H    1.774855   0.000000
    18  H    2.622693   2.763579   0.000000
    19  H    3.719468   2.557010   2.977130   0.000000
 Stoichiometry    C7H10O2
 Framework group  C1[X(C7H10O2)]
 Deg. of freedom    51
 Full point group                 C1      NOp   1
 Largest Abelian subgroup         C1      NOp   1
 Largest concise Abelian subgroup C1      NOp   1
                         Standard orientation:                         
 ---------------------------------------------------------------------
 Center     Atomic      Atomic             Coordinates (Angstroms)
 Number     Number       Type             X           Y           Z
 ---------------------------------------------------------------------
      1          6           0        2.165021   -0.019105    0.145193
      2          6           0        1.302328    1.263412    0.015679
      3          6           0       -0.065537    0.646222   -0.004467
      4          6           0       -1.453045    1.134056   -0.417404
      5          6           0       -2.193044   -0.235581   -0.165007
      6          6           0       -0.982611   -1.044918    0.372498
      7          8           0       -0.359648   -0.068457    1.255098
      8          6           0        0.098109   -0.728584   -0.687479
      9          8           0        1.433563   -1.099173   -0.465445
     10          1           0        3.132971    0.062498   -0.359657
     11          1           0        2.334370   -0.250293    1.201930
     12          1           0        1.465018    1.953070    0.847239
     13          1           0        1.494155    1.791130   -0.924780
     14          1           0       -1.821642    1.934831    0.226408
     15          1           0       -1.501383    1.465415   -1.458074
     16          1           0       -2.976039   -0.155241    0.590850
     17          1           0       -2.627762   -0.659921   -1.074716
     18          1           0       -1.150188   -2.023881    0.821006
     19          1           0       -0.168139   -0.869571   -1.741503
 ---------------------------------------------------------------------
 Rotational constants (GHZ):      3.4478156      1.6941953      1.4581513
 1\1\GINC-ALCHEMY-MN\FOpt\RB3LYP\6-31G(2df,p)\C7H10O2\PUCK\27-Jan-2020\
 0\\# b3lyp 6-31G(2df,p) opt Freq\\titel\\0,1\C,3.0170758694,1.43358607
 6,1.4802245438\C,2.7410048655,2.1676850203,0.1420378045\C,1.8474144276
 ,1.1592993283,-0.5190510504\C,1.3786960541,0.9234214897,-1.9537439937\
 C,0.5678054369,-0.3945548717,-1.6494374117\C,0.793019473,-0.4430983675
 ,-0.1145086399\O,0.5983587926,0.9548678883,0.2437323623\C,2.3205132286
 ,-0.2219587465,-0.0173736133\O,2.9204640824,0.0187520849,1.2284958362\
 H,4.0138004121,1.6385178118,1.8839612007\H,2.2669712376,1.7194767242,2
 .2248260049\H,2.270998151,3.1415773879,0.2976508253\H,3.6559321231,2.3
 056343749,-0.4441581909\H,0.7435132673,1.7310051343,-2.3224587382\H,2.
 2020269069,0.7710742907,-2.6566280806\H,-0.4930966444,-0.2972968696,-1
 .8858373025\H,0.9636258742,-1.2697706312,-2.1728281176\H,0.2248021071,
 -1.1518074079,0.4875467682\H,2.965543025,-0.855985837,-0.6367903273\\V
 ersion=ES64L-G09RevD.01\State=1-A\HF=-423.1672572\RMSD=8.157e-09\RMSF=
 4.444e-05\Dipole=0.244914,0.1600202,-0.6651153\Quadrupole=-0.8396717,1
 .4507927,-0.6111211,2.7515206,-0.0713889,1.6736232\PG=C01 [X(C7H10O2)]
 \\@


 LET US PLACE AT THE END OF EVERY CHAPTER.....THE
 TWO LETTERS USED BY THE ROMAN JUDGES WHEN THEY DID
 NOT UNDERSTAND A PLEADING.
 N. L. -NON LIQUET- IT IS NOT CLEAR.
                                              -- VOLTAIRE
 Job cpu time:       0 days  0 hours  8 minutes  1.8 seconds.
 File lengths (MBytes):  RWF=     52 Int=      0 D2E=      0 Chk=      7 Scr=      1
 Normal termination of Gaussian 09 at Mon Jan 27 11:16:11 2020.
 Link1:  Proceeding to internal job step number  2.
 ----------------------------------------------------------------------
 #N Geom=AllCheck Guess=TCheck SCRF=Check GenChk RB3LYP/6-31G(2df,p) Fr
 eq
 ----------------------------------------------------------------------
 1/10=4,29=7,30=1,38=1,40=1/1,3;
 2/12=2,40=1/2;
 3/5=1,6=6,7=104,11=2,14=-4,16=1,25=1,30=1,70=2,71=2,74=-5,116=1,140=1/1,2,3;
 4/5=101/1;
 5/5=2,98=1/2;
 8/6=4,10=90,11=11/1;
 11/6=1,8=1,9=11,15=111,16=1/1,2,10;
 10/6=1/2;
 6/7=2,8=2,9=2,10=2,18=1,28=1/1;
 7/8=1,10=1,25=1/1,2,3,16;
 1/10=4,30=1/3;
 99//99;
 Structure from the checkpoint file:  "/scratch/puck/g09_6ef60231-b748-4f1b-b161-b0bc9532b24a/Gau-149670.chk"
 -----
 titel
 -----
 Charge =  0 Multiplicity = 1
 Redundant internal coordinates found in file.
 C,0,3.0170758694,1.433586076,1.4802245438
 C,0,2.7410048655,2.1676850203,0.1420378045
 C,0,1.8474144276,1.1592993283,-0.5190510504
 C,0,1.3786960541,0.9234214897,-1.9537439937
 C,0,0.5678054369,-0.3945548717,-1.6494374117
 C,0,0.793019473,-0.4430983675,-0.1145086399
 O,0,0.5983587926,0.9548678883,0.2437323623
 C,0,2.3205132286,-0.2219587465,-0.0173736133
 O,0,2.9204640824,0.0187520849,1.2284958362
 H,0,4.0138004121,1.6385178118,1.8839612007
 H,0,2.2669712376,1.7194767242,2.2248260049
 H,0,2.270998151,3.1415773879,0.2976508253
 H,0,3.6559321231,2.3056343749,-0.4441581909
 H,0,0.7435132673,1.7310051343,-2.3224587382
 H,0,2.2020269069,0.7710742907,-2.6566280806
 H,0,-0.4930966444,-0.2972968696,-1.8858373025
 H,0,0.9636258742,-1.2697706312,-2.1728281176
 H,0,0.2248021071,-1.1518074079,0.4875467682
 H,0,2.965543025,-0.855985837,-0.6367903273
 Recover connectivity data from disk.

 GradGradGradGradGradGradGradGradGradGradGradGradGradGradGradGradGradGrad
 Berny optimization.
 Initialization pass.
                           ----------------------------
                           !    Initial Parameters    !
                           ! (Angstroms and Degrees)  !
 --------------------------                            --------------------------
 ! Name  Definition              Value          Derivative Info.                !
 --------------------------------------------------------------------------------
 ! R1    R(1,2)                  1.5511         calculate D2E/DX2 analytically  !
 ! R2    R(1,9)                  1.4403         calculate D2E/DX2 analytically  !
 ! R3    R(1,10)                 1.0947         calculate D2E/DX2 analytically  !
 ! R4    R(1,11)                 1.0949         calculate D2E/DX2 analytically  !
 ! R5    R(2,3)                  1.5008         calculate D2E/DX2 analytically  !
 ! R6    R(2,12)                 1.0925         calculate D2E/DX2 analytically  !
 ! R7    R(2,13)                 1.0953         calculate D2E/DX2 analytically  !
 ! R8    R(3,4)                  1.5276         calculate D2E/DX2 analytically  !
 ! R9    R(3,7)                  1.4778         calculate D2E/DX2 analytically  !
 ! R10   R(3,8)                  1.5438         calculate D2E/DX2 analytically  !
 ! R11   R(4,5)                  1.5771         calculate D2E/DX2 analytically  !
 ! R12   R(4,14)                 1.0916         calculate D2E/DX2 analytically  !
 ! R13   R(4,15)                 1.0932         calculate D2E/DX2 analytically  !
 ! R14   R(5,6)                  1.5521         calculate D2E/DX2 analytically  !
 ! R15   R(5,16)                 1.0913         calculate D2E/DX2 analytically  !
 ! R16   R(5,17)                 1.0939         calculate D2E/DX2 analytically  !
 ! R17   R(6,7)                  1.4562         calculate D2E/DX2 analytically  !
 ! R18   R(6,8)                  1.5465         calculate D2E/DX2 analytically  !
 ! R19   R(6,18)                 1.0898         calculate D2E/DX2 analytically  !
 ! R20   R(8,9)                  1.4036         calculate D2E/DX2 analytically  !
 ! R21   R(8,19)                 1.0962         calculate D2E/DX2 analytically  !
 ! A1    A(2,1,9)              107.5891         calculate D2E/DX2 analytically  !
 ! A2    A(2,1,10)             113.0559         calculate D2E/DX2 analytically  !
 ! A3    A(2,1,11)             109.9502         calculate D2E/DX2 analytically  !
 ! A4    A(9,1,10)             108.024          calculate D2E/DX2 analytically  !
 ! A5    A(9,1,11)             109.2322         calculate D2E/DX2 analytically  !
 ! A6    A(10,1,11)            108.9089         calculate D2E/DX2 analytically  !
 ! A7    A(1,2,3)               99.672          calculate D2E/DX2 analytically  !
 ! A8    A(1,2,12)             112.0601         calculate D2E/DX2 analytically  !
 ! A9    A(1,2,13)             111.8795         calculate D2E/DX2 analytically  !
 ! A10   A(3,2,12)             113.925          calculate D2E/DX2 analytically  !
 ! A11   A(3,2,13)             110.2567         calculate D2E/DX2 analytically  !
 ! A12   A(12,2,13)            108.8632         calculate D2E/DX2 analytically  !
 ! A13   A(2,3,4)              134.4371         calculate D2E/DX2 analytically  !
 ! A14   A(2,3,7)              111.6442         calculate D2E/DX2 analytically  !
 ! A15   A(2,3,8)              105.9946         calculate D2E/DX2 analytically  !
 ! A16   A(4,3,7)              101.7751         calculate D2E/DX2 analytically  !
[...]
 24418,-0.07796073,0.00324074,-0.04214156,0.52957090,-0.00225379,-0.006
 76387,-0.00013333,-0.00194137,0.00337816,-0.01865982,-0.00370341,-0.07
 421903,-0.01142837,-0.11429510,0.46260164,0.00108899,0.00191887,0.0002
 6196,-0.00160236,0.00116157,0.00318887,-0.03695200,-0.00738134,-0.1552
 6589,-0.06145807,-0.06783822,0.52703327,-0.00163829,0.00132736,-0.0003
 6515,0.00155864,0.00002719,-0.00128317,-0.01825183,-0.02123227,-0.0126
 9362,-0.09032096,-0.02392677,0.00742712,0.58644096,-0.00007783,-0.0013
 7977,-0.00010578,0.00032606,0.00099525,-0.00055577,-0.01260076,-0.0218
 7844,-0.02219774,-0.02108112,-0.11611925,0.01066979,-0.05851825,0.4955
 8566,-0.00038389,-0.00212872,-0.00046463,0.00035749,0.00182509,-0.0040
 2333,-0.01825120,-0.02418738,0.00025967,0.00506828,0.00854367,-0.06916
 331,0.04059742,0.10509127,0.42355164,-0.00126009,-0.00085585,0.0002384
 7,-0.00595711,-0.00017306,0.00205272,-0.02300020,-0.06172887,0.0190648
 6,-0.00213173,-0.00740947,0.01665077,-0.08241623,0.00218815,-0.0139029
 4,0.47175500,-0.00402153,0.00093133,-0.00075707,0.00046869,-0.00527999
 ,-0.00209313,-0.05746327,-0.07820054,0.02583623,0.00250938,-0.01197104
 ,0.02832368,-0.00267959,-0.06237632,0.01091249,0.14705225,0.51065530,-
 0.00585514,0.00234006,-0.00121280,0.00196256,0.00235470,-0.00356333,0.
 01636163,0.02326862,0.00786268,0.01480773,0.02108862,-0.02128923,-0.01
 712239,0.01705763,-0.13976004,-0.09744997,-0.12818968,0.46025368,0.000
 65868,-0.00063043,0.00115409,-0.02341711,-0.00449769,0.01286798,-0.111
 40294,0.01562066,0.02503909,-0.00730358,0.00351725,0.01716863,0.007085
 29,-0.01292382,0.00036896,-0.06251005,0.00780342,0.00894298,0.26420252
 ,0.00093337,-0.00411973,0.00071917,-0.02724604,-0.00072206,0.01622418,
 -0.01299773,-0.05580238,0.00266056,-0.01181236,-0.00040052,0.00554498,
 0.00907350,-0.02863344,-0.02563668,0.03710314,-0.14821872,-0.02858891,
 -0.04692947,0.29235847,-0.00077351,0.00051515,-0.00130337,-0.00499572,
 0.00147104,0.00428271,0.02671613,-0.01606706,-0.08337786,0.03908583,-0
 .00856032,-0.03662348,0.01650987,-0.03640953,-0.02384393,0.01338099,-0
 .01412116,-0.07272656,-0.08882679,0.06739282,0.20690085,-0.01159713,-0
 .01799869,-0.00485673,0.00959362,-0.01350713,-0.00168831,-0.04379745,0
 .02393852,-0.01000719,-0.00342421,0.00502793,-0.00558334,-0.01037931,-
 0.00013115,-0.01575349,-0.15052861,-0.01036345,0.01370181,-0.07368458,
 0.04409236,0.01495895,0.51257900,-0.01684755,-0.02087003,-0.03329774,0
 .00145465,-0.03651677,-0.00518428,0.02364943,-0.13429455,0.00602576,-0
 .00004486,0.00277767,0.00693560,-0.00242686,0.00399523,-0.00510235,-0.
 02392958,-0.03604381,0.00978474,0.04864814,-0.04854634,-0.00779809,-0.
 10833223,0.49737456,-0.00699102,-0.03355576,-0.02156437,0.00316910,0.0
 0210278,0.00518532,-0.00937408,0.02676767,-0.05970343,-0.02167477,0.02
 318133,-0.01875754,-0.03575480,0.00456389,-0.01499619,0.01217571,0.005
 61459,-0.06976630,0.03550855,-0.02534930,-0.00059234,-0.02021257,0.106
 80380,0.50128841,-0.06002425,-0.00716204,-0.01333763,0.00214882,0.0002
 0250,-0.00161858,-0.00979682,0.00130575,-0.01848552,-0.00212953,0.0021
 8081,-0.00000896,-0.00637423,0.00181309,0.00083513,-0.00509221,0.00082
 465,-0.03013590,0.00198297,-0.00182236,-0.00232255,-0.07878288,0.01147
 178,-0.05693984,0.13031524,0.01109532,-0.16629505,0.00312142,0.0064543
 7,-0.04034311,0.00796080,0.00444372,-0.00797173,0.01858604,0.00150536,
 -0.00193509,-0.00009685,-0.00506307,0.00002949,0.00134093,-0.00160247,
 -0.00516414,-0.01764586,0.00167971,0.00547244,0.00240555,-0.00955349,-
 0.08660060,-0.03890198,0.00513094,0.35132810,-0.01216165,-0.03047818,-
 0.08042640,-0.00326958,0.01686663,-0.00082386,-0.02088792,0.01063489,-
 0.04009805,-0.00332824,0.00646770,-0.00062292,-0.00065057,0.00105034,0
 .00203246,-0.01249649,-0.00388380,-0.00665098,0.00330112,0.00094513,0.
 00493563,-0.05466144,0.00390477,-0.19150408,0.12722945,0.05323209,0.34
 645369,-0.27237513,-0.03644807,-0.08389301,-0.00102849,0.00011767,0.00
 196296,-0.00020545,-0.00029288,0.00070452,-0.00000066,0.00014341,0.000
 25779,-0.00013011,-0.00017808,-0.00001961,0.00017633,0.00012558,-0.000
 35519,0.00009272,-0.00018875,-0.00102634,-0.00036686,0.00090571,0.0023
 3889,0.00551219,-0.00587124,-0.00217634,0.28768738,-0.03101846,-0.0512
 4870,-0.01053610,0.01360992,0.00619043,0.00533891,0.00072498,-0.003332
 43,0.00289120,0.00021186,0.00084357,-0.00041307,-0.00089110,0.00025840
 ,0.00040775,-0.00009079,-0.00115433,-0.00221010,0.00037596,0.00074537,
 0.00048174,-0.00313662,-0.00337877,0.00450248,-0.02866970,-0.02011986,
 -0.02172281,0.04387175,0.06624931,-0.08060873,-0.01472304,-0.08268833,
 -0.02269741,-0.00379391,-0.00818119,-0.00091472,0.00121818,-0.00450981
 ,-0.00054493,-0.00066979,0.00047438,-0.00039567,-0.00004441,-0.0000535
 8,0.00002484,-0.00061568,-0.00060512,0.00030070,0.00047516,0.00070362,
 -0.00087516,-0.00073596,-0.00054244,-0.00627551,-0.00411414,-0.0014245
 5,0.09223647,0.02021072,0.08800964,-0.18115618,0.04149640,0.12349940,0
 .00436650,-0.00129382,-0.00508991,0.00033761,0.00011078,0.00020731,-0.
 00009158,-0.00008540,-0.00004657,0.00002989,-0.00007888,-0.00017685,0.
 00026443,-0.00017989,0.00016206,-0.00082627,-0.00029968,-0.00080526,-0
 .00064025,-0.00090902,-0.00166203,0.00940404,0.00281076,-0.00394397,-0
 .02051892,0.00540693,0.02016560,0.18721899,0.03882835,-0.05494884,-0.0
 3673707,-0.01041504,0.00298404,0.01263414,-0.00089276,-0.00136986,0.00
 008225,0.00003150,0.00041879,0.00004984,-0.00013540,-0.00002558,0.0001
 6355,0.00037253,-0.00033661,-0.00022687,-0.00019846,0.00071673,0.00040
 886,0.00625714,-0.00160060,0.00250038,0.01564712,-0.02863560,-0.028580
 86,-0.00214458,0.00459962,0.00300844,-0.04651441,0.07803437,0.11880833
 ,-0.03858636,-0.16626245,0.01938981,-0.00297858,-0.01910757,0.00234112
 ,0.00084055,-0.00052054,-0.00045075,-0.00013777,0.00000918,-0.00027293
 ,0.00026573,-0.00002696,0.00038476,-0.00066753,-0.00019350,-0.00078187
 ,0.00072929,0.00167923,0.00122780,-0.00061450,0.00045355,0.00166803,-0
 .00863064,-0.00095915,-0.00870511,0.00279021,0.00878640,-0.13142973,0.
 04577876,0.17892143,-0.00339908,0.00452331,0.00243007,-0.09860050,0.10
 660949,0.01791388,0.01103725,-0.01961732,-0.00157575,0.00009810,0.0001
 8599,0.00041173,-0.00019069,0.00002381,0.00003645,0.00099057,-0.000866
 78,0.00008431,0.00141683,0.00261413,0.00042855,-0.00227724,-0.00386131
 ,-0.00177325,0.00026246,-0.00052971,-0.00107347,-0.00006929,0.00012007
 ,-0.00054745,0.00102611,-0.00061220,0.00014223,0.10112004,0.00438520,-
 0.00934430,-0.00417936,0.10397275,-0.25574738,-0.03430675,0.01006510,-
 0.01812931,-0.00122334,-0.00016885,-0.00003233,0.00028441,-0.00031110,
 0.00013957,0.00006090,0.00057505,-0.00059625,0.00022726,-0.00015833,0.
 00225017,0.00053629,-0.00145572,-0.00167778,-0.00025728,-0.00049951,-0
 .00139132,-0.00033024,0.00006432,-0.00031454,0.00075110,-0.00048546,0.
 00082568,0.00008094,-0.11302485,0.27915573,-0.01025882,0.02290012,0.00
 655971,0.01801120,-0.03598533,-0.05075177,0.01133429,-0.01678909,-0.00
 275274,0.00026090,-0.00025687,0.00054197,-0.00023887,0.00003232,0.0000
 3774,0.00027500,-0.00018641,0.00051153,-0.00087092,0.00122149,0.000606
 47,-0.00400556,-0.00043864,-0.00446336,-0.00000164,0.00642024,-0.00213
 222,-0.00071320,-0.00017210,-0.00124717,0.00062231,-0.00025557,0.00138
 982,-0.02007581,0.03781402,0.05427122,0.00739047,0.00146984,-0.0056561
 7,-0.23054563,-0.02596378,0.11545573,-0.01853950,0.00110975,0.01275093
 ,0.00046696,0.00076203,-0.00003724,0.00023946,-0.00037626,0.00010658,-
 0.00088560,0.00113556,0.00044537,-0.00060153,-0.00475341,-0.00208124,0
 .00023731,-0.00060946,0.00027631,-0.00014556,-0.00034068,0.00015486,0.
 00125618,-0.00038628,0.00038310,0.00068123,0.00083536,-0.00184046,-0.0
 1076710,-0.00222500,0.00629004,0.25072821,-0.01176083,-0.00135258,0.00
 563103,-0.02510733,-0.05409045,0.01539824,-0.01655490,-0.00130137,0.01
 275224,0.00030062,0.00067090,-0.00015969,0.00021827,-0.00013954,0.0001
 5839,-0.00075007,0.00151886,0.00031431,-0.00332507,-0.00355001,-0.0013
 8665,0.00077064,0.00064922,0.00005093,0.00127412,-0.00040622,0.0003445
 1,0.00004552,0.00060180,-0.00071161,0.00008448,-0.00024641,0.00152094,
 0.02410007,0.00506872,-0.01454664,0.03035738,0.05326928,0.02433279,0.0
 0042113,-0.01707817,0.11521546,0.01531182,-0.11760765,-0.01339537,0.00
 120301,0.00921710,0.00026936,0.00091119,0.00001686,0.00023013,0.000108
 27,0.00012608,-0.00048851,0.00058849,0.00058885,-0.00273469,-0.0039959
 9,-0.00003744,0.00025944,-0.00031331,-0.00045245,-0.00064306,0.0013986
 0,0.00129565,-0.00030250,-0.00088961,0.00164561,-0.00150698,0.00353825
 ,-0.00410267,0.00365178,0.00087716,-0.00259011,-0.12527445,-0.01874701
 ,0.12897669,0.00005798,0.00075731,-0.00008975,0.00025153,0.00019062,0.
 00044118,-0.00896814,0.01000242,-0.00310394,-0.14017878,0.11973889,-0.
 05173701,0.00921956,-0.01397141,0.00714736,-0.00130677,-0.00314087,-0.
 00042912,0.00195910,-0.00004288,0.00065241,-0.00022663,-0.00229671,-0.
 00124485,-0.00020185,0.00018427,-0.00134235,-0.00003802,-0.00003999,-0
 .00002397,0.00002011,-0.00008019,-0.00003129,-0.00006776,-0.00023499,-
 0.00022825,-0.00002419,0.00004958,-0.00005129,0.15142506,0.00009687,0.
 00023220,-0.00000504,0.00005491,0.00039635,0.00085960,-0.00601218,0.00
 787999,-0.00189374,0.11909418,-0.19250664,0.06460441,0.01350931,-0.017
 42864,0.00710583,-0.00121786,-0.00316395,-0.00110018,-0.00042580,0.001
 03093,0.00094249,-0.00029754,0.00014041,-0.00176176,-0.00021044,0.0004
 9009,-0.00068288,0.00000418,-0.00001079,0.00002407,-0.00000504,-0.0000
 0010,-0.00000736,0.00016880,0.00000738,0.00011692,-0.00002627,-0.00002
 282,-0.00006516,-0.12594830,0.20638624,0.00008557,0.00127607,-0.000046
 31,0.00064200,0.00019326,0.00110618,-0.01844445,0.02546916,-0.01111866
 ,-0.04911184,0.06344876,-0.07618349,-0.00058079,0.00102344,-0.00125245
 ,-0.00002414,0.00096230,0.00000819,0.00005449,-0.00172456,0.00367821,-
 0.00088177,-0.00368836,-0.00406229,-0.00092635,0.00078469,-0.00225068,
 -0.00006349,-0.00010447,-0.00006721,0.00002746,-0.00012302,-0.00006544
 ,-0.00017087,-0.00043181,-0.00022662,-0.00005185,-0.00009117,-0.000050
 54,0.05715621,-0.07140248,0.08165517,0.00003653,-0.00013036,0.00009759
 ,-0.00009812,-0.00009279,0.00047652,0.00879165,-0.00214993,-0.00523501
 ,-0.19971474,0.03185650,0.12678766,-0.01022288,0.00361052,0.00713870,-
 0.00087282,-0.00077070,-0.00043279,0.00259248,0.00037419,-0.00342343,0
 .00007982,0.00037718,0.00051798,0.00035822,0.00001488,0.00029480,0.000
 02995,0.00001218,0.00002970,0.00001436,0.00000537,0.00002298,-0.000010
 71,0.00003058,-0.00000235,0.00001861,0.00001387,0.00004431,-0.01347755
 ,0.00237841,0.01253592,0.21137259,-0.00004230,0.00001862,0.00005923,0.
 00005801,0.00004632,0.00007555,0.00682187,-0.00299197,-0.00246806,0.03
 233902,-0.05207286,-0.02544304,-0.01825710,0.00364481,0.01607418,-0.00
 207075,-0.00330563,0.00085426,-0.00007884,0.00134669,-0.00257414,-0.00
 067924,0.00051694,0.00049830,-0.00005590,-0.00008942,0.00007512,-0.000
 00588,0.00002604,-0.00000717,0.00002988,-0.00003446,0.00005474,0.00003
 774,0.00007994,0.00005723,-0.00027728,-0.00006781,-0.00007500,0.016826
 54,-0.00312208,-0.01566839,-0.03374729,0.05606548,-0.00013913,-0.00016
 058,0.00016381,0.00006610,0.00010565,0.00002073,0.02337601,-0.00329586
 ,-0.01195345,0.12419606,-0.02414465,-0.15532142,-0.00066541,-0.0009784
 1,-0.00063404,0.00070819,-0.00233982,-0.00133237,0.00125801,0.00268122
 ,-0.00906963,0.00092015,-0.00036022,0.00078838,-0.00014146,0.00011003,
 0.00049745,-0.00005069,0.00002108,-0.00002601,0.00003641,0.00001963,0.
 00018147,-0.00001318,0.00002741,0.00009400,-0.00060331,-0.00035024,-0.
 00008822,-0.00836065,0.00142684,0.00796747,-0.13950382,0.02646688,0.16
 793253,-0.00016622,-0.00009055,-0.00004003,0.00032154,0.00026600,-0.00
 040924,-0.00109541,-0.00088363,0.00101936,-0.01125089,0.00229602,-0.00
 195051,-0.30410082,0.02686132,-0.05544657,-0.00225772,0.00052297,-0.00
 021864,0.00149205,-0.00079535,0.00000099,0.00052380,0.00043591,-0.0005
 3105,0.00015305,-0.00003283,0.00028773,-0.00001794,-0.00000647,-0.0001
 0902,0.00000553,-0.00002556,-0.00004823,-0.00003554,-0.00005040,-0.000
 06251,0.00005630,0.00004168,0.00004680,0.00162057,0.00026223,0.0000558
 7,-0.00064486,-0.00168291,-0.00041565,0.32518188,-0.00000496,-0.000649
 16,-0.00002628,0.00017330,0.00035801,-0.00095137,-0.00321469,-0.003410
 18,0.00217668,-0.02497619,0.00082243,-0.00587891,0.02867154,-0.0480077
 7,0.00473449,0.00441629,-0.00178125,-0.00007835,0.00012861,0.00145386,
 -0.00031846,-0.00017413,-0.00060422,0.00086843,0.00025387,0.00104418,0
 .00033959,-0.00000115,0.00015072,-0.00012455,-0.00002687,0.00007187,-0
 .00003815,-0.00002777,-0.00003601,-0.00006572,0.00009507,0.00007320,0.
 00007204,0.00030975,0.00198997,0.00022021,-0.00200696,-0.00224433,-0.0
 0031602,-0.02799901,0.05310051,-0.00052282,0.00110365,0.00005792,0.000
 21738,-0.00017848,0.00017790,0.00038049,0.00092184,-0.00121100,0.00922
 932,-0.00088125,0.00130108,-0.05454868,0.00311932,-0.05694586,-0.03538
 894,0.00298557,-0.00799649,0.00254009,0.00124301,0.00367455,0.00229678
 ,0.00102587,-0.00620249,-0.00236137,-0.00185300,-0.00073877,-0.0000545
 3,-0.00035375,-0.00009216,0.00007287,-0.00012094,-0.00004152,-0.000041
 50,-0.00007466,0.00001891,-0.00002434,-0.00000415,0.00000866,-0.000440
 66,-0.00056861,0.00098115,0.00093133,0.00133843,0.00002468,0.06100567,
 -0.00665314,0.06157102,-0.00011514,-0.00048853,-0.00000456,0.00005981,
 0.00004846,-0.00079045,-0.00098288,-0.00191519,0.00039685,0.00489138,-
 0.01267592,-0.00788795,-0.08517171,0.07998823,0.04597990,0.00021543,-0
 .00303327,-0.00132202,0.00071615,-0.00127936,-0.00105927,-0.00004315,-
 0.00045020,-0.00053737,0.00039122,0.00027247,0.00057185,-0.00001053,0.
 00010801,-0.00002444,-0.00004812,0.00000864,0.00000770,-0.00000784,0.0
 0000008,0.00000959,0.00003025,0.00003345,0.00002557,-0.00048314,-0.001
 70064,-0.00019803,0.00148286,0.00045592,0.00000982,-0.01046202,0.02467
 575,0.01603025,0.08959555,-0.00026693,-0.00037540,0.00022450,0.0000390
 4,0.00021243,-0.00088655,-0.00009913,-0.00161038,0.00075939,0.00985843
 ,-0.01651317,-0.00962005,0.07855450,-0.21325067,-0.09943370,-0.0024415
 3,0.00249630,0.00075407,-0.00035864,0.00176968,0.00039779,0.00074476,-
 0.00030861,-0.00073029,-0.00023734,0.00043302,-0.00008881,-0.00003563,
 0.00007503,-0.00006308,0.00004937,0.00006273,0.00000636,0.00000968,0.0
 0000574,0.00001459,0.00002884,0.00001270,0.00003131,-0.00206694,-0.002
 53330,-0.00020721,0.00019985,0.00180385,0.00024373,0.00091442,-0.00221
 489,-0.00139952,-0.08422777,0.23006026,0.00032617,-0.00019102,0.000091
 56,-0.00006434,-0.00001810,0.00039212,0.00258606,0.00103726,-0.0022191
 7,-0.00355747,0.00908552,0.00396588,0.04491599,-0.09906030,-0.10762842
 ,0.01269683,-0.02341284,-0.00549227,-0.00377352,-0.00628329,-0.0087230
 6,0.00118841,-0.00076330,0.00079062,0.00007388,0.00079513,0.00037403,-
 0.00009650,0.00005944,0.00001877,-0.00000253,0.00007458,0.00014602,0.0
 0001110,0.00003194,-0.00005422,-0.00015788,-0.00008912,-0.00004133,0.0
 0092078,0.00180453,-0.00003825,-0.00048032,-0.00056130,0.00078604,-0.0
 0264591,0.00611392,0.00398347,-0.05094368,0.11037892,0.11384901,-0.000
 03383,0.00028277,0.00030704,0.00145180,-0.00132158,0.00029475,-0.00597
 080,-0.00127205,0.00011079,0.00035929,0.00003412,-0.00227035,0.0043186
 3,0.00473586,-0.00508536,-0.12975552,-0.09250962,0.08372477,0.00538729
 ,0.00377501,-0.00565316,-0.00211344,-0.01506281,0.01791816,0.00215523,
 0.00099364,-0.00246435,-0.00004043,-0.00003113,-0.00005182,-0.00000264
 ,-0.00013809,-0.00006016,-0.00041527,-0.00041587,-0.00039846,0.0001450
 8,0.00017108,0.00017551,0.00036309,0.00040913,-0.00000403,0.00014238,0
 .00009298,-0.00010180,0.00036217,0.00010442,0.00081080,0.00010018,-0.0
 0008272,-0.00000106,0.12476348,0.00008819,-0.00037604,0.00033784,-0.00
 119506,0.00028038,0.00156080,0.00067316,-0.00509085,-0.00190373,-0.000
 62395,0.00084631,-0.00138023,0.00142588,0.00434561,-0.00072213,-0.0839
 4160,-0.15865697,0.09534011,-0.01596005,-0.01844279,0.01421564,-0.0010
 1854,0.00254723,-0.00269711,-0.00024149,0.00037476,-0.00017755,-0.0000
 2858,0.00006353,-0.00001452,0.00000570,0.00000889,-0.00000672,0.000238
 28,0.00011494,0.00009341,-0.00050450,-0.00032206,-0.00039889,0.0000740
 7,0.00019056,-0.00010341,0.00017604,0.00037530,0.00008393,0.00000111,-
 0.00000936,0.00023214,0.00002236,-0.00033861,0.00093968,0.10091752,0.1
 7414630,0.00016355,-0.00000079,-0.00003662,-0.00054130,-0.00025976,0.0
 0069398,0.00052273,-0.00135741,-0.00093691,-0.00065460,0.00002579,-0.0
 0417925,0.01506352,0.01655930,-0.00723843,0.08248960,0.10082758,-0.138
 16819,-0.00689981,-0.00841188,0.00693729,-0.00416903,-0.00343746,0.002
 63473,0.00137922,0.00054417,0.00066784,-0.00000246,-0.00000884,0.00001
 785,-0.00000782,-0.00003314,0.00002695,0.00009261,-0.00000904,0.000000
 86,-0.00020060,-0.00005245,-0.00008394,0.00063946,0.00062954,-0.000178
 44,0.00038659,0.00110360,-0.00003157,-0.00068698,-0.00013669,0.0011644
 6,0.00019362,-0.00056766,-0.00039664,-0.08761768,-0.10542404,0.1391024
 8,0.00021984,-0.00000369,-0.00234047,0.00010786,-0.00012901,-0.0001193
 3,-0.00450949,-0.00352046,0.00336675,0.00022040,0.00054827,-0.00025834
 ,0.00030463,0.00039052,0.00138366,-0.00542711,0.01458648,0.01312796,-0
 .00784002,0.01020170,-0.00076645,-0.14515180,0.08782778,0.08479094,0.0
 0986390,-0.01159195,-0.01338344,0.00004709,-0.00017112,-0.00007158,-0.
 00008484,-0.00082933,-0.00037224,-0.00011034,-0.00006299,0.00005307,0.
 00025905,0.00003742,0.00014570,0.00005583,-0.00013394,-0.00009992,0.00
 012224,0.00023553,-0.00057566,0.00031453,-0.00039688,-0.00013214,-0.00
 015831,-0.00058226,-0.00099603,-0.00121669,-0.00010855,-0.00015062,0.1
 5298322,0.00069425,-0.00020792,-0.00075396,0.00013586,0.00074587,-0.00
 040112,0.00982015,-0.00058356,-0.01429022,-0.00017047,0.00017432,-0.00
 128176,0.00063396,0.00024540,0.00079242,-0.00549551,0.00064775,0.00465
 555,0.00771285,0.00129162,-0.00153195,0.08581658,-0.13755920,-0.074201
 09,-0.00120584,-0.00021995,-0.00791564,-0.00008330,-0.00024440,-0.0000
 6981,-0.00011584,-0.00052466,-0.00039991,-0.00009144,-0.00037865,0.000
 02605,-0.00033091,-0.00036542,0.00002370,-0.00031118,0.00004424,0.0001
 6698,-0.00015153,0.00000455,0.00075938,-0.00003495,-0.00010757,0.00011
 768,0.00015750,0.00021327,0.00005834,-0.00068267,-0.00005711,0.0000091
 8,-0.09629751,0.13688140,0.00340735,0.00485653,-0.00439701,-0.00014235
 ,-0.00011193,-0.00002912,-0.00503244,0.00108342,0.00715745,0.00043012,
 -0.00004218,0.00061307,-0.00017198,-0.00018937,0.00002357,-0.00039174,
 0.00021620,-0.00046775,-0.00461710,0.00015360,0.00289911,0.08814126,-0
 .07274635,-0.11853373,0.00201265,-0.02545723,-0.02862508,-0.00004165,-
 0.00029269,-0.00021870,-0.00012177,-0.00218119,-0.00031424,0.00006859,
 0.00012105,0.00018598,0.00006463,-0.00003187,0.00025701,0.00012573,-0.
 00002702,0.00014400,-0.00018637,0.00013959,0.00000015,0.00014790,0.000
 06227,0.00026449,-0.00045738,0.00018617,0.00019582,0.00036643,0.000024
 80,0.00000356,-0.08360187,0.09423618,0.14084142\\0.00002971,0.00010236
 ,0.00002476,-0.00011013,-0.00009614,0.00005950,-0.00009245,0.00008630,
 0.00003839,0.00005689,-0.00006291,0.00002685,-0.00002066,0.00006860,-0
 .00000242,-0.00000826,-0.00009061,-0.00002852,0.00002182,0.00004615,-0
 .00004201,0.00004713,-0.00007926,-0.00010500,0.00000291,-0.00001862,0.
 00001936,-0.00000957,0.00000435,-0.00001404,-0.00000223,0.00001607,-0.
 00000781,0.00005763,0.00001596,-0.00001261,0.00003024,-0.00000973,-0.0
 0002349,-0.00000014,-0.00000418,0.00000430,-0.00000222,-0.00001391,-0.
 00001248,-0.00000638,0.00000528,-0.00000987,-0.00000280,0.00000368,0.0
 0002254,0.00000960,0.00004520,0.00002734,-0.00000107,-0.00001859,0.000
 03520\\\@


 Fatherhood is pretending the present you love most is soap-on-a-rope.
 -- Bill Cosby
 Job cpu time:       0 days  0 hours 53 minutes  5.0 seconds.
 File lengths (MBytes):  RWF=    152 Int=      0 D2E=      0 Chk=      8 Scr=      1
 Normal termination of Gaussian 09 at Mon Jan 27 12:09:21 2020.
